/home/erba/Mitoli/pub/bin/Linux-ifort_openmpi_i64_clut/std/Pcrystal
/scratch/alessandro/tmp_p20547
script started on node80
MgO - PBE/pob-DVZVP-rev2 - harmonic freq + IR intensities (CPHF)
CRYSTAL
0 0 0
225
4.26844350
2
 12 0.    0.    0.
  8 0.5   0.5   0.5
FREQCALC
INTENS
INTCPHF
END
END
BASISSET
POB-DZVP-REV2
DFT
PBE
END
SHRINK
8 8
TOLINTEG
8 8 8 8 16
TOLDEE
10
END
************************************************
ANOTHER DROLLERY FILLED RUN OF THE CRYSTAL CODE!
************************************************
Thu 12 Sep 2024 12:26:24 PM CEST
 PROCESS            0  OF            1  WORKING

         
 *******************************************************************************
 *                                                                             *
 *                               CRYSTAL23                                     *
 *                      public : 1.0.1 - October 2022                          *
 *                       HTTP://WWW.CRYSTAL.UNITO.IT                           *
 *                                                                             *
 *                              MAIN AUTHORS                                   *
 *                                                                             *
 *  R. DOVESI(1,11), V.R. SAUNDERS(2), C. ROETTI(1,11), R. ORLANDO(1,11),      *
 *  C.M. ZICOVICH-WILSON(1,3), F. PASCALE(4), B. CIVALLERI(1,11),              *
 *  K. DOLL(5), N.M. HARRISON(6), I.J. BUSH(7), Ph. D'ARCO(8),                 *
 *  M. LLUNELL(9), M. CAUSA'(10), Y. NOEL(8), L. MASCHIO(1,11), A. ERBA(1,11)  *
 *  M. RE'RAT(14), S. CASASSA(1,11), B.G. SEARLE(2), J.K. DESMARAIS(1)         *
 *                                                                             *
 *        CONTRIBUTIONS TO THE CODE HAVE ALSO BEEN GIVEN BY                    *
 *                                                                             *
 *  M. FERRABONE(1,11), M. DE LA PIERRE(1,11), M. FERRERO(1,11),               *
 *  J. BAIMA(1,11), E. ALBANESE(1,11), M.F. PEINTINGER(12), R. BAST(13),       *
 *  B. KIRTMAN(15), V. LACIVITA(1,11), R. DEMICHELIS(1,16)                     *
 *  G. BRANDEBURG(17), S. SALUSTRO(1,11), G. SANSONE(1,11)                     *
 *  M.T. RUGGIERO(18), L.E. DAGA(1), L. DONA'(1), A. COSSARD(1)                *
 *                                                                             *
 * (1) THEORETICAL CHEMISTRY GROUP - UNIVERSITA' DI TORINO - TORINO (ITALY)    *
 * (2) SCIENTIFIC COMPUTING DEPARTMENT - STFC DARESBURY (UK)                   *
 * (3) UNIVERSIDAD AUTONOMA DEL ESTADO DE MORELOS - CUERNAVACA (MEXICO)        *
 * (4) UNIVERSITE' DE LORRAINE - NANCY (FRANCE)                                *
 * (5) UNIVERSITAET STUTTGART- STUTTGART (GERMANY)                             *
 * (6) IMPERIAL COLLEGE - LONDON (UK)                                          *
 * (7) SCIENTIFIC COMPUTING DEPARTMENT - STFC RAL (UK)                         *
 * (8) UPMC - SORBONNE UNIVERSITES - PARIS (FRANCE)                            *
 * (9) UNIVERSIDAD DE BARCELONA - BARCELONA (SPAIN)                            *
 *(10) UNIVERSITA' DI NAPOLI "FEDERICO II" - NAPOLI (ITALY)                    *
 *(11) NIS - NANOSTRUCTURED INTERFACES AND SURFACES - TORINO (ITALY)           *
 *(12) MPI FUER CHEMISCHE ENERGIEKONVERSION - MUELHEIM AN DER RUHR (GERMANY)   *
 *(13) UNIVERSITY OF TROMSO - TROMSO (NORWAY)                                  *
 *(14) UNIVERSITE' DE PAU ET DES PAYS DE L'ADOUR - PAU (FRANCE)                *
 *(15) UNIVERSITY OF CALIFORNIA SANTA BARBARA - SANTA BARBARA (USA)            *
 *(16) CURTIN UNIVERSITY - PERTH (AUSTRALIA)                                   *
 *(17) UNIVERSITY COLLEGE LONDON - LONDON (UK)                                 *
 *(18) UNIVERSITY OF VERMONT - BURLINGTON (USA)                                *
 *                                                                             *
 *******************************************************************************
 EEEEEEEEEE STARTING  DATE 12 09 2024 TIME 12:26:24.6
 MgO - PBE/pob-DVZVP-rev2 - harmonic freq + IR intensities (CPHF)                

 CRYSTAL CALCULATION
 (INPUT ACCORDING TO THE INTERNATIONAL TABLES FOR X-RAY CRYSTALLOGRAPHY)
 CRYSTAL FAMILY                       :  CUBIC       
 CRYSTAL CLASS  (GROTH - 1921)        :  CUBIC HEXAKISOCTAHEDRAL              

 SPACE GROUP (CENTROSYMMETRIC)        :  F M 3 M         

 LATTICE PARAMETERS  (ANGSTROMS AND DEGREES) - CONVENTIONAL CELL
        A           B           C        ALPHA        BETA       GAMMA
     4.26844     4.26844     4.26844    90.00000    90.00000    90.00000


 NUMBER OF IRREDUCIBLE ATOMS IN THE CONVENTIONAL CELL:    2

 INPUT COORDINATES

 ATOM AT. N.              COORDINATES
   1  12     0.000000000000E+00  0.000000000000E+00  0.000000000000E+00
   2   8     5.000000000000E-01  5.000000000000E-01  5.000000000000E-01

 *******************************************************************************

 << INFORMATION >>: FROM NOW ON, ALL COORDINATES REFER TO THE PRIMITIVE CELL

 *******************************************************************************

 LATTICE PARAMETERS  (ANGSTROMS AND DEGREES) - PRIMITIVE CELL
       A          B          C        ALPHA      BETA     GAMMA        VOLUME
    3.01825    3.01825    3.01825    60.00000  60.00000  60.00000     19.442344

 COORDINATES OF THE EQUIVALENT ATOMS (FRACTIONAL UNITS)

 N. ATOM EQUIV AT. N.          X                  Y                  Z

   1   1   1   12 MG    0.00000000000E+00  0.00000000000E+00  0.00000000000E+00

   2   2   1    8 O    -5.00000000000E-01 -5.00000000000E-01 -5.00000000000E-01

 NUMBER OF SYMMETRY OPERATORS         :   48
 *******************************************************************************
 * GEOMETRY EDITING - INPUT COORDINATES ARE GIVEN IN ANGSTROM         
 *******************************************************************************

 GEOMETRY NOW FULLY CONSISTENT WITH THE GROUP

 FRQFRQFRQFRQFRQFRQFRQFRQFRQFRQFRQFRQFRQFRQFRQFRQFRQFRQFRQFRQFRQFRQFRQFRQFRQFRQ

                       FREQUENCY CALCULATION

 INFORMATION **** INPFREQ **** IR INTENSITIES EVALUATED THROUGH CPHF APPROACH
 INFORMATION **** INPFREQ **** NEW DEFAULT - IMPOSING ECKART CONDITIONS TO THE HESSIAN

 GCALCO - MAX INDICES DIRECT LATTICE VECTOR    14    14    14
 NO.OF VECTORS CREATED 6999 STARS  105 RMAX    60.36183 BOHR

 GEOMETRY FOR WAVE FUNCTION - DIMENSIONALITY OF THE SYSTEM    3
 (NON PERIODIC DIRECTION: LATTICE PARAMETER FORMALLY SET TO 500)
 *******************************************************************************
 LATTICE PARAMETERS (ANGSTROMS AND DEGREES) - BOHR = 0.5291772083 ANGSTROM
 PRIMITIVE CELL - CENTRING CODE 5/0 VOLUME=    19.442344 - DENSITY  3.415 g/cm^3
         A              B              C           ALPHA      BETA       GAMMA 
     3.01824534     3.01824534     3.01824534    60.000000  60.000000  60.000000
 *******************************************************************************
 ATOMS IN THE ASYMMETRIC UNIT    2 - ATOMS IN THE UNIT CELL:    2
     ATOM                 X/A                 Y/B                 Z/C    
 *******************************************************************************
      1 T  12 MG    0.000000000000E+00  0.000000000000E+00  0.000000000000E+00
      2 T   8 O    -5.000000000000E-01 -5.000000000000E-01 -5.000000000000E-01

 TRANSFORMATION MATRIX PRIMITIVE-CRYSTALLOGRAPHIC CELL
 -1.0000  1.0000  1.0000  1.0000 -1.0000  1.0000  1.0000  1.0000 -1.0000

 *******************************************************************************
 CRYSTALLOGRAPHIC CELL (VOLUME=         77.76937550)
         A              B              C           ALPHA      BETA       GAMMA 
     4.26844350     4.26844350     4.26844350    90.000000  90.000000  90.000000

 COORDINATES IN THE CRYSTALLOGRAPHIC CELL
     ATOM                 X/A                 Y/B                 Z/C    
 *******************************************************************************
      1 T  12 MG    0.000000000000E+00  0.000000000000E+00  0.000000000000E+00
      2 T   8 O    -5.000000000000E-01 -5.000000000000E-01 -5.000000000000E-01

 T = ATOM BELONGING TO THE ASYMMETRIC UNIT

 ****   48 SYMMOPS - TRANSLATORS IN FRACTIONAL UNITS
 **** MATRICES AND TRANSLATORS IN THE CRYSTALLOGRAPHIC REFERENCE FRAME
   V INV                    ROTATION MATRICES                   TRANSLATORS
   1   1  1.00  0.00  0.00  0.00  1.00  0.00  0.00  0.00  1.00  0.00  0.00  0.00
   2   2  0.00  1.00  0.00  1.00  0.00  0.00 -1.00 -1.00 -1.00  0.00  0.00  0.00
   3   3 -1.00 -1.00 -1.00  0.00  0.00  1.00  0.00  1.00  0.00  0.00  0.00  0.00
   4   4  0.00  0.00  1.00 -1.00 -1.00 -1.00  1.00  0.00  0.00  0.00  0.00  0.00
   5   6  0.00  0.00  1.00  1.00  0.00  0.00  0.00  1.00  0.00  0.00  0.00  0.00
   6   5  0.00  1.00  0.00  0.00  0.00  1.00  1.00  0.00  0.00  0.00  0.00  0.00
   7   8  1.00  0.00  0.00  0.00  0.00  1.00 -1.00 -1.00 -1.00  0.00  0.00  0.00
   8   7  1.00  0.00  0.00 -1.00 -1.00 -1.00  0.00  1.00  0.00  0.00  0.00  0.00
   9  10 -1.00 -1.00 -1.00  0.00  1.00  0.00  1.00  0.00  0.00  0.00  0.00  0.00
  10   9  0.00  0.00  1.00  0.00  1.00  0.00 -1.00 -1.00 -1.00  0.00  0.00  0.00
  11  12  0.00  1.00  0.00 -1.00 -1.00 -1.00  0.00  0.00  1.00  0.00  0.00  0.00
  12  11 -1.00 -1.00 -1.00  1.00  0.00  0.00  0.00  0.00  1.00  0.00  0.00  0.00
  13  13  0.00 -1.00  0.00 -1.00  0.00  0.00  0.00  0.00 -1.00  0.00  0.00  0.00
  14  14 -1.00  0.00  0.00  0.00 -1.00  0.00  1.00  1.00  1.00  0.00  0.00  0.00
  15  16  0.00  0.00 -1.00  1.00  1.00  1.00  0.00 -1.00  0.00  0.00  0.00  0.00
  16  15  1.00  1.00  1.00  0.00  0.00 -1.00 -1.00  0.00  0.00  0.00  0.00  0.00
  17  17 -1.00  0.00  0.00  0.00  0.00 -1.00  0.00 -1.00  0.00  0.00  0.00  0.00
  18  18  0.00  0.00 -1.00  0.00 -1.00  0.00 -1.00  0.00  0.00  0.00  0.00  0.00
  19  21  0.00  0.00 -1.00 -1.00  0.00  0.00  1.00  1.00  1.00  0.00  0.00  0.00
  20  22  1.00  1.00  1.00 -1.00  0.00  0.00  0.00 -1.00  0.00  0.00  0.00  0.00
  21  19  0.00 -1.00  0.00  1.00  1.00  1.00 -1.00  0.00  0.00  0.00  0.00  0.00
  22  20  0.00 -1.00  0.00  0.00  0.00 -1.00  1.00  1.00  1.00  0.00  0.00  0.00
  23  23  1.00  1.00  1.00  0.00 -1.00  0.00  0.00  0.00 -1.00  0.00  0.00  0.00
  24  24 -1.00  0.00  0.00  1.00  1.00  1.00  0.00  0.00 -1.00  0.00  0.00  0.00
  25  25 -1.00  0.00  0.00  0.00 -1.00  0.00  0.00  0.00 -1.00  0.00  0.00  0.00
  26  26  0.00 -1.00  0.00 -1.00  0.00  0.00  1.00  1.00  1.00  0.00  0.00  0.00
  27  27  1.00  1.00  1.00  0.00  0.00 -1.00  0.00 -1.00  0.00  0.00  0.00  0.00
  28  28  0.00  0.00 -1.00  1.00  1.00  1.00 -1.00  0.00  0.00  0.00  0.00  0.00
  29  30  0.00  0.00 -1.00 -1.00  0.00  0.00  0.00 -1.00  0.00  0.00  0.00  0.00
  30  29  0.00 -1.00  0.00  0.00  0.00 -1.00 -1.00  0.00  0.00  0.00  0.00  0.00
  31  32 -1.00  0.00  0.00  0.00  0.00 -1.00  1.00  1.00  1.00  0.00  0.00  0.00
  32  31 -1.00  0.00  0.00  1.00  1.00  1.00  0.00 -1.00  0.00  0.00  0.00  0.00
  33  34  1.00  1.00  1.00  0.00 -1.00  0.00 -1.00  0.00  0.00  0.00  0.00  0.00
  34  33  0.00  0.00 -1.00  0.00 -1.00  0.00  1.00  1.00  1.00  0.00  0.00  0.00
  35  36  0.00 -1.00  0.00  1.00  1.00  1.00  0.00  0.00 -1.00  0.00  0.00  0.00
  36  35  1.00  1.00  1.00 -1.00  0.00  0.00  0.00  0.00 -1.00  0.00  0.00  0.00
  37  37  0.00  1.00  0.00  1.00  0.00  0.00  0.00  0.00  1.00  0.00  0.00  0.00
  38  38  1.00  0.00  0.00  0.00  1.00  0.00 -1.00 -1.00 -1.00  0.00  0.00  0.00
  39  40  0.00  0.00  1.00 -1.00 -1.00 -1.00  0.00  1.00  0.00  0.00  0.00  0.00
  40  39 -1.00 -1.00 -1.00  0.00  0.00  1.00  1.00  0.00  0.00  0.00  0.00  0.00
  41  41  1.00  0.00  0.00  0.00  0.00  1.00  0.00  1.00  0.00  0.00  0.00  0.00
  42  42  0.00  0.00  1.00  0.00  1.00  0.00  1.00  0.00  0.00  0.00  0.00  0.00
  43  45  0.00  0.00  1.00  1.00  0.00  0.00 -1.00 -1.00 -1.00  0.00  0.00  0.00
  44  46 -1.00 -1.00 -1.00  1.00  0.00  0.00  0.00  1.00  0.00  0.00  0.00  0.00
  45  43  0.00  1.00  0.00 -1.00 -1.00 -1.00  1.00  0.00  0.00  0.00  0.00  0.00
  46  44  0.00  1.00  0.00  0.00  0.00  1.00 -1.00 -1.00 -1.00  0.00  0.00  0.00
  47  47 -1.00 -1.00 -1.00  0.00  1.00  0.00  0.00  0.00  1.00  0.00  0.00  0.00
  48  48  1.00  0.00  0.00 -1.00 -1.00 -1.00  0.00  0.00  1.00  0.00  0.00  0.00

 DIRECT LATTICE VECTORS CARTESIAN COMPONENTS (ANGSTROM)
          X                    Y                    Z
   0.000000000000E+00   0.213422175000E+01   0.213422175000E+01
   0.213422175000E+01   0.000000000000E+00   0.213422175000E+01
   0.213422175000E+01   0.213422175000E+01   0.000000000000E+00


 CARTESIAN COORDINATES - PRIMITIVE CELL
 *******************************************************************************
 *      ATOM          X(ANGSTROM)         Y(ANGSTROM)         Z(ANGSTROM)
 *******************************************************************************
    1    12 MG    0.000000000000E+00  0.000000000000E+00  0.000000000000E+00
    2     8 O     2.134221750000E+00  2.134221750000E+00  2.134221750000E+00

 *******************************************************************************
 STARTING BASIS SET HANDLING 
 *******************************************************************************

 Loading internal basis set: POB-DZVP-REV2       

 Please cite in your publication:
 D. Vilela Oliveira, M. F. Peintinger, J. Laun, and T. Bredow, J. Comput. Chem.,
  40 (2019)                                                                     
                                                                                
                    

 *******************************************************************************
 LOCAL ATOMIC FUNCTIONS BASIS SET
 *******************************************************************************
   ATOM   X(AU)   Y(AU)   Z(AU)  N. TYPE  EXPONENT  S COEF   P COEF   D/F/G COEF
 *******************************************************************************
   1 MG   0.000   0.000   0.000
                                  1 S  
                                         4.954E+03-5.778E-03 0.000E+00 0.000E+00
                                         7.452E+02-4.312E-02 0.000E+00 0.000E+00
                                         1.692E+02-1.927E-01 0.000E+00 0.000E+00
                                         4.730E+01-4.864E-01 0.000E+00 0.000E+00
                                         1.446E+01-4.255E-01 0.000E+00 0.000E+00
                                  2 S  
                                         2.477E+01 8.796E-02 0.000E+00 0.000E+00
                                         2.494E+00-5.517E-01 0.000E+00 0.000E+00
                                         8.781E-01-5.344E-01 0.000E+00 0.000E+00
                                  3 S  
                                         3.451E-01 1.000E+00 0.000E+00 0.000E+00
                                  4 S  
                                         1.501E-01 1.000E+00 0.000E+00 0.000E+00
                           5-     7 P  
                                         9.805E+01 0.000E+00-1.448E-02 0.000E+00
                                         2.259E+01 0.000E+00-9.550E-02 0.000E+00
                                         6.839E+00 0.000E+00-3.079E-01 0.000E+00
                                         2.233E+00 0.000E+00-4.994E-01 0.000E+00
                                         7.161E-01 0.000E+00-3.150E-01 0.000E+00
                           8-    10 P  
                                         2.469E-01 0.000E+00 1.000E+00 0.000E+00
                          11-    15 D  
                                         4.148E-01 0.000E+00 0.000E+00 1.000E+00
   2 O    4.033   4.033   4.033
                                 16 S  
                                         2.266E+03-5.343E-03 0.000E+00 0.000E+00
                                         3.409E+02-3.989E-02 0.000E+00 0.000E+00
                                         7.736E+01-1.785E-01 0.000E+00 0.000E+00
                                         2.148E+01-4.643E-01 0.000E+00 0.000E+00
                                         6.659E+00-4.431E-01 0.000E+00 0.000E+00
                                 17 S  
                                         8.479E-01 1.000E+00 0.000E+00 0.000E+00
                                 18 S  
                                         2.791E-01 1.000E+00 0.000E+00 0.000E+00
                          19-    21 P  
                                         1.772E+01 0.000E+00 4.339E-02 0.000E+00
                                         3.864E+00 0.000E+00 2.309E-01 0.000E+00
                                         1.048E+00 0.000E+00 5.138E-01 0.000E+00
                          22-    24 P  
                                         2.624E-01 0.000E+00 1.000E+00 0.000E+00
                          25-    29 D  
                                         4.790E-01 0.000E+00 0.000E+00 1.000E+00

 *******************************************************************************
 FINISHED BASIS SET HANDLING 
 *******************************************************************************

 INFORMATION **** SET_MPP **** PCRYSTAL CALCULATION
 INFORMATION **** READM2 **** NEW DEFAULT: FOCK/KS MATRIX MIXING SET TO 30 %
 INFORMATION **** READM2 **** NEW DEFAULT: FULL DIRECT SCF MODE
 INFORMATION **** READM2 **** NEW DEFAULT: COULOMB BIPOLAR BUFFER SET TO 32 Mb
 INFORMATION **** READM2 **** NEW DEFAULT: EXCHANGE BIPOLAR BUFFER SET TO 32 Mb

 *******************************************************************************
 NEW DEFAULT: DFT INTEGRATION GRID INCREASED TO XLGRID
 NEW DEFAULT: DIIS ACCELERATOR ACTIVE
 USE KEYWORD NODIIS TO TURN IT OFF
 *******************************************************************************

 INFORMATION **** TOLINTEG **** COULOMB AND EXCHANGE SERIES TOLERANCES MODIFIED
 INFORMATION **** TOLDEE **** SCF TOL ON TOTAL ENERGY SET TO          10
 *******************************************************************************
 N. OF ATOMS PER CELL         2  COULOMB OVERLAP TOL         (T1) 10**   -8
 NUMBER OF SHELLS            13  COULOMB PENETRATION TOL     (T2) 10**   -8
 NUMBER OF AO                29  EXCHANGE OVERLAP TOL        (T3) 10**   20
 N. OF ELECTRONS PER CELL    20  EXCHANGE PSEUDO OVP (F(G))  (T4) 10**   20
 CORE ELECTRONS PER CELL     12  EXCHANGE PSEUDO OVP (P(G))  (T5) 10**   20
 N. OF SYMMETRY OPERATORS    48  POLE ORDER IN MONO ZONE                  4
 *******************************************************************************
 TYPE OF CALCULATION :  RESTRICTED CLOSED SHELL
 KOHN-SHAM HAMILTONIAN

 (EXCHANGE)[CORRELATION] FUNCTIONAL:(PERDEW-BURKE-ERNZERHOF)[PERDEW-BURKE-ERNZERHOF]


 CAPPA:IS1  8;IS2  8;IS3  8; K PTS MONK NET  29; SYMMOPS:K SPACE  48;G SPACE  48

 *******************************************************************************
 MAX NUMBER OF SCF CYCLES      50  CONVERGENCE ON DELTAP        10**-20
 WEIGHT OF F(I) IN F(I+1)      30% CONVERGENCE ON ENERGY        10**-10
 SHRINK. FACT.(MONKH.)    8  8  8  NUMBER OF K POINTS IN THE IBZ     29
 SHRINKING FACTOR(GILAT NET)    8  NUMBER OF K POINTS(GILAT NET)     29
 *******************************************************************************
 *** K POINTS COORDINATES (OBLIQUE COORDINATES IN UNITS OF IS =  8)
   1-R(  0  0  0)   2-C(  1  0  0)   3-C(  2  0  0)   4-C(  3  0  0)
   5-R(  4  0  0)   6-C(  1  1  0)   7-C(  2  1  0)   8-C(  3  1  0)
   9-C(  4  1  0)  10-C(  5  1  0)  11-C(  6  1  0)  12-C(  7  1  0)
  13-C(  2  2  0)  14-C(  3  2  0)  15-C(  4  2  0)  16-C(  5  2  0)
  17-C(  6  2  0)  18-C(  3  3  0)  19-C(  4  3  0)  20-C(  5  3  0)
  21-R(  4  4  0)  22-C(  3  2  1)  23-C(  4  2  1)  24-C(  5  2  1)
  25-C(  4  3  1)  26-C(  5  3  1)  27-C(  6  3  1)  28-C(  5  4  1)
  29-C(  6  4  2)

 DIRECT LATTICE VECTORS COMPON. (A.U.)     RECIP. LATTICE VECTORS COMPON. (A.U.) 
        X            Y            Z              X            Y            Z
    0.0000000    4.0330946    4.0330946     -0.7789534    0.7789534    0.7789534
    4.0330946    0.0000000    4.0330946      0.7789534   -0.7789534    0.7789534
    4.0330946    4.0330946    0.0000000      0.7789534    0.7789534   -0.7789534

 DISK SPACE FOR EIGENVECTORS (FTN 10)       46255 REALS

 SYMMETRY ADAPTION OF THE BLOCH FUNCTIONS ENABLED
 TTTTTTTTTTTTTTTTTTTTTTTTTTTTTT gordsh1     TELAPSE        0.11 TCPU        0.08

 MATRIX SIZE: P(G)   23983, F(G)   12421, P(G) IRR    1358, F(G) IRR    1358
 MAX G-VECTOR INDEX FOR 1- AND 2-ELECTRON INTEGRALS 247

 TTTTTTTTTTTTTTTTTTTTTTTTTTTTTT INPUT       TELAPSE        0.11 TCPU        0.08

 NEIGHBORS OF THE NON-EQUIVALENT ATOMS

 N = NUMBER OF NEIGHBORS AT DISTANCE R
    ATOM  N     R/ANG      R/AU   NEIGHBORS (ATOM LABELS AND CELL INDICES)
   1 MG   6     2.1342     4.0331    2 O   -1 0 0    2 O    0-1 0    2 O    0 0-1
                                     2 O   -1-1 0    2 O   -1 0-1    2 O    0-1-1
   1 MG  12     3.0182     5.7037    1 MG  -1 0 0    1 MG   1 0 0    1 MG  -1 0 1
                                     1 MG   1 0-1    1 MG  -1 1 0    1 MG   1-1 0
                                     1 MG   0-1 0    1 MG   0 1 0    1 MG   0-1 1
                                     1 MG   0 1-1    1 MG   0 0-1    1 MG   0 0 1
   1 MG   8     3.6966     6.9855    2 O    0 0 0    2 O   -1-1 1    2 O   -1 1-1
                                     2 O    1-1-1    2 O   -2 0 0    2 O    0-2 0
                                     2 O    0 0-2    2 O   -1-1-1
   1 MG   6     4.2684     8.0662    1 MG  -1-1 1    1 MG   1 1-1    1 MG  -1 1-1
                                     1 MG   1-1 1    1 MG  -1 1 1    1 MG   1-1-1
   1 MG  24     4.7723     9.0183    2 O    1 0-1    2 O   -1 0 1    2 O    1-1 0
                                     2 O   -1 1 0    2 O    0 1-1    2 O    0-1 1
                                     2 O   -2 0 1    2 O   -2 1 0    2 O    1 0-2
                                     2 O    1-2 0    2 O    0-2 1    2 O    0 1-2
                                     2 O   -2-1 1    2 O   -2 1-1    2 O   -1-2 1
                                     2 O   -1 1-2    2 O    1-1-2    2 O    1-2-1
                                     2 O   -2-1 0    2 O   -2 0-1    2 O   -1-2 0
                                     2 O   -1 0-2    2 O    0-2-1    2 O    0-1-2
   1 MG  24     5.2278     9.8790    1 MG  -2 0 1    1 MG   2 0-1    1 MG  -2 1 0
                                     1 MG   2-1 0    1 MG  -2 1 1    1 MG   2-1-1
                                     1 MG  -1-1 0    1 MG   1 1 0    1 MG  -1-1 2
                                     1 MG   1 1-2    1 MG  -1 0-1    1 MG   1 0 1
                                     1 MG  -1 0 2    1 MG   1 0-2    1 MG  -1 2-1
                                     1 MG   1-2 1    1 MG  -1 2 0    1 MG   1-2 0
                                     1 MG   0-2 1    1 MG   0 2-1    1 MG   0-1-1
                                     1 MG   0 1 1    1 MG   0-1 2    1 MG   0 1-2

   2 O    6     2.1342     4.0331    1 MG   1 0 0    1 MG   0 1 0    1 MG   0 0 1
                                     1 MG   1 1 0    1 MG   1 0 1    1 MG   0 1 1
   2 O   12     3.0182     5.7037    2 O   -1 0 0    2 O    1 0 0    2 O   -1 0 1
                                     2 O    1 0-1    2 O   -1 1 0    2 O    1-1 0
                                     2 O    0-1 0    2 O    0 1 0    2 O    0-1 1
                                     2 O    0 1-1    2 O    0 0-1    2 O    0 0 1
   2 O    8     3.6966     6.9855    1 MG   0 0 0    1 MG   1 1-1    1 MG   1-1 1
                                     1 MG  -1 1 1    1 MG   2 0 0    1 MG   0 2 0
                                     1 MG   0 0 2    1 MG   1 1 1
   2 O    6     4.2684     8.0662    2 O   -1-1 1    2 O    1 1-1    2 O   -1 1-1
                                     2 O    1-1 1    2 O   -1 1 1    2 O    1-1-1
   2 O   24     4.7723     9.0183    1 MG  -1 0 1    1 MG   1 0-1    1 MG  -1 1 0
                                     1 MG   1-1 0    1 MG   0-1 1    1 MG   0 1-1
                                     1 MG   2 0-1    1 MG   2-1 0    1 MG  -1 0 2
                                     1 MG  -1 2 0    1 MG   0 2-1    1 MG   0-1 2
                                     1 MG   2 1-1    1 MG   2-1 1    1 MG   1 2-1
                                     1 MG   1-1 2    1 MG  -1 1 2    1 MG  -1 2 1
                                     1 MG   2 1 0    1 MG   2 0 1    1 MG   1 2 0
                                     1 MG   1 0 2    1 MG   0 2 1    1 MG   0 1 2
   2 O   24     5.2278     9.8790    2 O   -2 0 1    2 O    2 0-1    2 O   -2 1 0
                                     2 O    2-1 0    2 O   -2 1 1    2 O    2-1-1
                                     2 O   -1-1 0    2 O    1 1 0    2 O   -1-1 2
                                     2 O    1 1-2    2 O   -1 0-1    2 O    1 0 1
                                     2 O   -1 0 2    2 O    1 0-2    2 O   -1 2-1
                                     2 O    1-2 1    2 O   -1 2 0    2 O    1-2 0
                                     2 O    0-2 1    2 O    0 2-1    2 O    0-1-1
                                     2 O    0 1 1    2 O    0-1 2    2 O    0 1-2


 THERE ARE NO SYMMETRY ALLOWED DIRECTIONS
 TTTTTTTTTTTTTTTTTTTTTTTTTTTTTT SYMM        TELAPSE        0.11 TCPU        0.09
 TTTTTTTTTTTTTTTTTTTTTTTTTTTTTT INT_SCREEN  TELAPSE        0.11 TCPU        0.09

 DFT PARAMETERS

     ATOM       ELECTRONS   NET CHARGE   R(ANGSTROM)
   1  12  MG     12.0000      0.0000     1.60000000
   2   8  O       8.0000      0.0000     0.74000000

 SIZE OF GRID=       1311
 TTTTTTTTTTTTTTTTTTTTTTTTTTTTTT MAKE_GRID2  TELAPSE        0.49 TCPU        0.46
 BECKE WEIGHT FUNCTION
 RADSAFE =     2.00
 TOLERANCES - DENSITY:10**- 6; POTENTIAL:10**- 9; GRID WGT:10**-14

 RADIAL INTEGRATION  - INTERVALS (POINTS,UPPER LIMIT):            1( 75,  4.0*R)

 ANGULAR INTEGRATION - INTERVALS (ACCURACY LEVEL [N. POINTS] UPPER LIMIT):
  1(  4[  86]   0.2)  2(  8[ 194]   0.5)  3( 12[ 350]   0.9)  4( 16[ 974]   3.5)
  5( 12[ 350]9999.0)
 TTTTTTTTTTTTTTTTTTTTTTTTTTTTTT INT_CALC    TELAPSE        0.51 TCPU        0.49
 EEEEEEEEEE INT_CALC TERMINATION  DATE 12 09 2024 TIME 12:26:25.1

 *******************************************************************************
 MgO - PBE/pob-DVZVP-rev2 - harmonic freq + IR intensities (CPHF)                
 CRYSTAL - SCF - TYPE OF CALCULATION :  RESTRICTED CLOSED SHELL
 *******************************************************************************

 CAPPA:IS1  8;IS2  8;IS3  8; K PTS MONK NET  29; SYMMOPS:K SPACE  48;G SPACE  48

 TTTTTTTTTTTTTTTTTTTTTTTTTTTTTT SDIK        TELAPSE        0.52 TCPU        0.49

 AAAAAAAAAAAAAAAAAAAAAAAAAAAAAAAAAAAAAAAAAAAAAAAAAAAAAAAAAAAAAAAAAAAAAAAAAAAAAAA
         ATOMIC WAVEFUNCTION(S)


 NUCLEAR CHARGE 12.0  SYMMETRY SPECIES            S    P
 N. ELECTRONS   12.0  NUMBER OF PRIMITIVE GTOS   10    6
                      NUMBER OF CONTRACTED GTOS   4    2
                      NUMBER OF CLOSED SHELLS     3    1
                      OPEN SHELL OCCUPATION       0    0

  ZNUC  SCFIT    TOTAL HF ENERGY   KINETIC ENERGY   VIRIAL THEOREM ACCURACY
  12.0     9    -1.994602712E+02  1.994291603E+02 -2.000155999E+00  2.6E-06

 NUCLEAR CHARGE  8.0  SYMMETRY SPECIES            S    P
 N. ELECTRONS    8.0  NUMBER OF PRIMITIVE GTOS    7    4
                      NUMBER OF CONTRACTED GTOS   3    2
                      NUMBER OF CLOSED SHELLS     2    0
                      OPEN SHELL OCCUPATION       0    4

  ZNUC  SCFIT    TOTAL HF ENERGY   KINETIC ENERGY   VIRIAL THEOREM ACCURACY
   8.0    13    -7.471200414E+01  7.474432650E+01 -1.999567561E+00  2.0E-06

 AAAAAAAAAAAAAAAAAAAAAAAAAAAAAAAAAAAAAAAAAAAAAAAAAAAAAAAAAAAAAAAAAAAAAAAAAAAAAAA

 TTTTTTTTTTTTTTTTTTTTTTTTTTTTTT MOQGAD      TELAPSE        0.53 TCPU        0.50
 TTTTTTTTTTTTTTTTTTTTTTTTTTTTTT SHELLXN     TELAPSE        2.30 TCPU        2.27
 TTTTTTTTTTTTTTTTTTTTTTTTTTTTTT MONMO3      TELAPSE        2.32 TCPU        2.29
 NUMERICALLY INTEGRATED DENSITY     20.0000538819
 TTTTTTTTTTTTTTTTTTTTTTTTTTTTTT NUMDFT      TELAPSE        2.59 TCPU        2.57
 CYC   0 ETOT(AU) -2.751699911889E+02 DETOT -2.75E+02 tst  0.00E+00 PX  1.00E+00
 TTTTTTTTTTTTTTTTTTTTTTTTTTTTTT DIIS        TELAPSE        2.60 TCPU        2.57
 TTTTTTTTTTTTTTTTTTTTTTTTTTTTTT FDIK        TELAPSE        2.61 TCPU        2.58
 INSULATING STATE
 TOP OF VALENCE BANDS -    BAND     10; K    1; EIG -3.3028403E-01 AU
 BOTTOM OF VIRTUAL BANDS - BAND     11; K    1; EIG -8.7639965E-02 AU
 DIRECT ENERGY BAND GAP:   6.6027 eV
 TTTTTTTTTTTTTTTTTTTTTTTTTTTTTT PDIG        TELAPSE        2.63 TCPU        2.60
 TTTTTTTTTTTTTTTTTTTTTTTTTTTTTT MOQGAD      TELAPSE        2.64 TCPU        2.62
 TTTTTTTTTTTTTTTTTTTTTTTTTTTTTT SHELLXN     TELAPSE        4.58 TCPU        4.55
 TTTTTTTTTTTTTTTTTTTTTTTTTTTTTT MONMO3      TELAPSE        4.60 TCPU        4.57
 NUMERICALLY INTEGRATED DENSITY     20.0000532597
 TTTTTTTTTTTTTTTTTTTTTTTTTTTTTT NUMDFT      TELAPSE        4.89 TCPU        4.86
 CYC   1 ETOT(AU) -2.750725758361E+02 DETOT  9.74E-02 tst  0.00E+00 PX  1.00E+00
 TTTTTTTTTTTTTTTTTTTTTTTTTTTTTT DIIS        TELAPSE        4.90 TCPU        4.87
 DIIS TEST: 0.43801E+00 AT SCF   CYCLE   1 - MIX   30 %
 TTTTTTTTTTTTTTTTTTTTTTTTTTTTTT FDIK        TELAPSE        4.90 TCPU        4.87
 INSULATING STATE
 TOP OF VALENCE BANDS -    BAND     10; K    1; EIG -5.1080874E-02 AU
 BOTTOM OF VIRTUAL BANDS - BAND     11; K    1; EIG  6.2325118E-02 AU
 DIRECT ENERGY BAND GAP:   3.0859 eV
 TTTTTTTTTTTTTTTTTTTTTTTTTTTTTT PDIG        TELAPSE        4.93 TCPU        4.90
 TTTTTTTTTTTTTTTTTTTTTTTTTTTTTT MOQGAD      TELAPSE        4.94 TCPU        4.91
 TTTTTTTTTTTTTTTTTTTTTTTTTTTTTT SHELLXN     TELAPSE        6.88 TCPU        6.85
 TTTTTTTTTTTTTTTTTTTTTTTTTTTTTT MONMO3      TELAPSE        6.89 TCPU        6.87
 NUMERICALLY INTEGRATED DENSITY     20.0000702142
 TTTTTTTTTTTTTTTTTTTTTTTTTTTTTT NUMDFT      TELAPSE        7.18 TCPU        7.15
 CYC   2 ETOT(AU) -2.750708694241E+02 DETOT  1.71E-03 tst  2.55E-02 PX  3.72E-01
 TTTTTTTTTTTTTTTTTTTTTTTTTTTTTT DIIS        TELAPSE        7.18 TCPU        7.16
 DIIS TEST: 0.50382E+00 AT SCF   CYCLE   2 - DIIS ACTIVE - HISTORY:     2 CYCLES
 TTTTTTTTTTTTTTTTTTTTTTTTTTTTTT FDIK        TELAPSE        7.19 TCPU        7.16
 INSULATING STATE
 TOP OF VALENCE BANDS -    BAND     10; K    1; EIG -1.4536046E-01 AU
 BOTTOM OF VIRTUAL BANDS - BAND     11; K    1; EIG  2.3009035E-02 AU
 DIRECT ENERGY BAND GAP:   4.5816 eV
 TTTTTTTTTTTTTTTTTTTTTTTTTTTTTT PDIG        TELAPSE        7.21 TCPU        7.19
 TTTTTTTTTTTTTTTTTTTTTTTTTTTTTT MOQGAD      TELAPSE        7.23 TCPU        7.20
 TTTTTTTTTTTTTTTTTTTTTTTTTTTTTT SHELLXN     TELAPSE        9.16 TCPU        9.13
 TTTTTTTTTTTTTTTTTTTTTTTTTTTTTT MONMO3      TELAPSE        9.18 TCPU        9.15
 NUMERICALLY INTEGRATED DENSITY     20.0000623367
 TTTTTTTTTTTTTTTTTTTTTTTTTTTTTT NUMDFT      TELAPSE        9.46 TCPU        9.44
 CYC   3 ETOT(AU) -2.751732601304E+02 DETOT -1.02E-01 tst  4.57E-03 PX  2.17E-01
 TTTTTTTTTTTTTTTTTTTTTTTTTTTTTT DIIS        TELAPSE        9.47 TCPU        9.44
 DIIS TEST: 0.14210E-02 AT SCF   CYCLE   3 - DIIS ACTIVE - HISTORY:     3 CYCLES
 TTTTTTTTTTTTTTTTTTTTTTTTTTTTTT FDIK        TELAPSE        9.47 TCPU        9.45
 INSULATING STATE
 TOP OF VALENCE BANDS -    BAND     10; K    1; EIG -1.5084651E-01 AU
 BOTTOM OF VIRTUAL BANDS - BAND     11; K    1; EIG  1.9487286E-02 AU
 DIRECT ENERGY BAND GAP:   4.6350 eV
 TTTTTTTTTTTTTTTTTTTTTTTTTTTTTT PDIG        TELAPSE        9.50 TCPU        9.47
 TTTTTTTTTTTTTTTTTTTTTTTTTTTTTT MOQGAD      TELAPSE        9.51 TCPU        9.48
 TTTTTTTTTTTTTTTTTTTTTTTTTTTTTT SHELLXN     TELAPSE       11.45 TCPU       11.42
 TTTTTTTTTTTTTTTTTTTTTTTTTTTTTT MONMO3      TELAPSE       11.46 TCPU       11.44
 NUMERICALLY INTEGRATED DENSITY     20.0000619285
 TTTTTTTTTTTTTTTTTTTTTTTTTTTTTT NUMDFT      TELAPSE       11.75 TCPU       11.72
 CYC   4 ETOT(AU) -2.751735499690E+02 DETOT -2.90E-04 tst  8.96E-06 PX  6.55E-03
 TTTTTTTTTTTTTTTTTTTTTTTTTTTTTT DIIS        TELAPSE       11.76 TCPU       11.73
 DIIS TEST: 0.49701E-04 AT SCF   CYCLE   4 - DIIS ACTIVE - HISTORY:     4 CYCLES
 TTTTTTTTTTTTTTTTTTTTTTTTTTTTTT FDIK        TELAPSE       11.76 TCPU       11.73
 INSULATING STATE
 TOP OF VALENCE BANDS -    BAND     10; K    1; EIG -1.5260831E-01 AU
 BOTTOM OF VIRTUAL BANDS - BAND     11; K    1; EIG  1.8172792E-02 AU
 DIRECT ENERGY BAND GAP:   4.6472 eV
 TTTTTTTTTTTTTTTTTTTTTTTTTTTTTT PDIG        TELAPSE       11.79 TCPU       11.76
 TTTTTTTTTTTTTTTTTTTTTTTTTTTTTT MOQGAD      TELAPSE       11.80 TCPU       11.77
 TTTTTTTTTTTTTTTTTTTTTTTTTTTTTT SHELLXN     TELAPSE       13.73 TCPU       13.71
 TTTTTTTTTTTTTTTTTTTTTTTTTTTTTT MONMO3      TELAPSE       13.75 TCPU       13.72
 NUMERICALLY INTEGRATED DENSITY     20.0000618161
 TTTTTTTTTTTTTTTTTTTTTTTTTTTTTT NUMDFT      TELAPSE       14.04 TCPU       14.01
 CYC   5 ETOT(AU) -2.751735599071E+02 DETOT -9.94E-06 tst  5.02E-07 PX  1.68E-03
 TTTTTTTTTTTTTTTTTTTTTTTTTTTTTT DIIS        TELAPSE       14.04 TCPU       14.02
 DIIS TEST: 0.39410E-06 AT SCF   CYCLE   5 - DIIS ACTIVE - HISTORY:     5 CYCLES
 TTTTTTTTTTTTTTTTTTTTTTTTTTTTTT FDIK        TELAPSE       14.05 TCPU       14.02
 INSULATING STATE
 TOP OF VALENCE BANDS -    BAND     10; K    1; EIG -1.5254830E-01 AU
 BOTTOM OF VIRTUAL BANDS - BAND     11; K    1; EIG  1.8208838E-02 AU
 DIRECT ENERGY BAND GAP:   4.6465 eV
 TTTTTTTTTTTTTTTTTTTTTTTTTTTTTT PDIG        TELAPSE       14.07 TCPU       14.05
 TTTTTTTTTTTTTTTTTTTTTTTTTTTTTT MOQGAD      TELAPSE       14.09 TCPU       14.06
 TTTTTTTTTTTTTTTTTTTTTTTTTTTTTT SHELLXN     TELAPSE       16.02 TCPU       16.00
 TTTTTTTTTTTTTTTTTTTTTTTTTTTTTT MONMO3      TELAPSE       16.04 TCPU       16.01
 NUMERICALLY INTEGRATED DENSITY     20.0000618273
 TTTTTTTTTTTTTTTTTTTTTTTTTTTTTT NUMDFT      TELAPSE       16.33 TCPU       16.30
 CYC   6 ETOT(AU) -2.751735599830E+02 DETOT -7.58E-08 tst  3.55E-09 PX  1.53E-04
 TTTTTTTTTTTTTTTTTTTTTTTTTTTTTT DIIS        TELAPSE       16.33 TCPU       16.30
 DIIS TEST: 0.82815E-09 AT SCF   CYCLE   6 - DIIS ACTIVE - HISTORY:     6 CYCLES
 TTTTTTTTTTTTTTTTTTTTTTTTTTTTTT FDIK        TELAPSE       16.34 TCPU       16.31
 INSULATING STATE
 TOP OF VALENCE BANDS -    BAND     10; K    1; EIG -1.5255653E-01 AU
 BOTTOM OF VIRTUAL BANDS - BAND     11; K    1; EIG  1.8202909E-02 AU
 DIRECT ENERGY BAND GAP:   4.6466 eV
 TTTTTTTTTTTTTTTTTTTTTTTTTTTTTT PDIG        TELAPSE       16.36 TCPU       16.33
 TTTTTTTTTTTTTTTTTTTTTTTTTTTTTT MOQGAD      TELAPSE       16.37 TCPU       16.35
 TTTTTTTTTTTTTTTTTTTTTTTTTTTTTT SHELLXN     TELAPSE       18.31 TCPU       18.28
 TTTTTTTTTTTTTTTTTTTTTTTTTTTTTT MONMO3      TELAPSE       18.32 TCPU       18.30
 NUMERICALLY INTEGRATED DENSITY     20.0000618269
 TTTTTTTTTTTTTTTTTTTTTTTTTTTTTT NUMDFT      TELAPSE       18.61 TCPU       18.59
 CYC   7 ETOT(AU) -2.751735599829E+02 DETOT  7.07E-11 tst  9.29E-12 PX  6.06E-06
 TTTTTTTTTTTTTTTTTTTTTTTTTTTTTT DIIS        TELAPSE       18.62 TCPU       18.59
 DIIS TEST: 0.13375E-12 AT SCF   CYCLE   7 - DIIS ACTIVE - HISTORY:     7 CYCLES
 TTTTTTTTTTTTTTTTTTTTTTTTTTTTTT FDIK        TELAPSE       18.62 TCPU       18.59
 INSULATING STATE
 TOP OF VALENCE BANDS -    BAND     10; K    1; EIG -1.5255660E-01 AU
 BOTTOM OF VIRTUAL BANDS - BAND     11; K    1; EIG  1.8202858E-02 AU
 DIRECT ENERGY BAND GAP:   4.6466 eV
 TTTTTTTTTTTTTTTTTTTTTTTTTTTTTT PDIG        TELAPSE       18.65 TCPU       18.62
 TTTTTTTTTTTTTTTTTTTTTTTTTTTTTT MOQGAD      TELAPSE       18.66 TCPU       18.63
 TTTTTTTTTTTTTTTTTTTTTTTTTTTTTT SHELLXN     TELAPSE       20.60 TCPU       20.57
 ::: PSEUDO TOTAL   ENERGY                        -2.5013856262654E+02
 ::: VIRIAL COEFFICIENT                            1.0443051991934E+00
 TTTTTTTTTTTTTTTTTTTTTTTTTTTTTT MONMO3      TELAPSE       20.61 TCPU       20.58
 NUMERICALLY INTEGRATED DENSITY     20.0000618269
 EXCHANGE ENERGY: -0.243032598263E+02  CORRELATION ENERGY: -0.731737530027E+00
 TTTTTTTTTTTTTTTTTTTTTTTTTTTTTT NUMDFT      TELAPSE       20.90 TCPU       20.87
 CYC   8 ETOT(AU) -2.751735599829E+02 DETOT  2.27E-13 tst  5.73E-15 PX  6.06E-06

 == SCF ENDED - CONVERGENCE ON ENERGY      E(AU) -2.7517355998290E+02 CYCLES   8


 ENERGY EXPRESSION=HARTREE+FOCK EXCH*0.00000+(PBE        EXCH)*1.00000+PBE        CORR


 TOTAL ENERGY(DFT)(AU)(  8) -2.7517355998290E+02 DE 2.3E-13 tester 5.7E-15
 TTTTTTTTTTTTTTTTTTTTTTTTTTTTTT EDFT        TELAPSE       20.90 TCPU       20.87
 INSULATING STATE
 TOP OF VALENCE BANDS -    BAND     10; K    1; EIG -1.5255669E-01 AU
 BOTTOM OF VIRTUAL BANDS - BAND     11; K    1; EIG  1.8202805E-02 AU
 DIRECT ENERGY BAND GAP:   4.6466 eV
 EIGENVECTORS IN FORTRAN UNIT  8
 EEEEEEEEEE SCF TERMINATION  DATE 12 09 2024 TIME 12:26:45.5

     *********************************************************************
     * ***************************************************************** *
     * *        COUPLED-PERTURBED KOHN-SHAM CALCULATION (CPKS)         * *
     * *        REFERENCES TO BE QUOTED WHEN USING THIS MODULE:        * *
     * *        (1) M. Ferrero, M. Rerat, R. Orlando, R.Dovesi,        * *
     * *            J. Comput. Chem. 29 (2008), 1450;                  * *
     * *            J. Chem. Phys. 128 (2008), 014110.                 * *
     * *        (2) M. Ferrero, M. Rerat, B. Kirtman, R. Dovesi,       * *
     * *            J. Chem. Phys. 129 (2008), 244110.                 * *
     * ***************************************************************** *
     *********************************************************************

 INFORMATION **** CP_DRIVER **** CONVERGENCE ON ALPHA: 10**          -3
 INFORMATION **** CP_DRIVER **** MAX NUMBER OF CPHF/CPKS CYCLES         200
 INFORMATION **** CP_DRIVER **** CPHF/CPKS DAMPING PERCENTAGE:          60
 STATIC FIELD (OR H*NU < 1E-15 HA)

 *******************************************************************************

 ELECTRIC FIELD APPLIED ALONG CARTESIAN DIRECTION X

 *******************************************************************************
 THE NUMBER OF SYMMETRY OPERATORS HAS BEEN REDUCED FROM 48 TO  1

 NEW GRID IN RECIPROCAL SPACE
 *******************************************************************************
 POINTS IN THE IBZ                 260 SHRINKING FACTORS               8  8  8
 *******************************************************************************
 *** K POINTS COORDINATES (OBLIQUE COORDINATES IN UNITS OF SHRINK FAC. )
   1-R(  0  0  0)   2-C(  1  0  0)   3-C(  0  1  0)   4-C(  7  7  7)
   5-C(  0  0  1)   6-C(  2  0  0)   7-C(  0  2  0)   8-C(  6  6  6)
   9-C(  0  0  2)  10-C(  3  0  0)  11-C(  0  3  0)  12-C(  5  5  5)
  13-C(  0  0  3)  14-R(  4  0  0)  15-R(  0  4  0)  16-R(  4  4  4)
  17-R(  0  0  4)  18-C(  1  1  0)  19-C(  0  1  1)  20-C(  1  0  1)
  21-C(  2  1  0)  22-C(  1  2  0)  23-C(  6  6  7)  24-C(  7  7  1)
  25-C(  0  2  1)  26-C(  1  0  2)  27-C(  1  7  7)  28-C(  2  0  1)
  29-C(  0  1  2)  30-C(  6  7  6)  31-C(  7  6  6)  32-C(  7  1  7)
  33-C(  3  1  0)  34-C(  1  3  0)  35-C(  5  5  6)  36-C(  7  7  2)
  37-C(  0  3  1)  38-C(  1  0  3)  39-C(  2  7  7)  40-C(  3  0  1)
  41-C(  0  1  3)  42-C(  5  6  5)  43-C(  6  5  5)  44-C(  7  2  7)
  45-C(  4  1  0)  46-C(  1  4  0)  47-C(  4  4  5)  48-C(  7  7  3)
  49-C(  0  4  1)  50-C(  1  0  4)  51-C(  3  7  7)  52-C(  4  0  1)
  53-C(  0  1  4)  54-C(  4  5  4)  55-C(  5  4  4)  56-C(  7  3  7)
  57-C(  5  1  0)  58-C(  1  5  0)  59-C(  3  3  4)  60-C(  7  7  4)
  61-C(  0  5  1)  62-C(  1  0  5)  63-C(  4  7  7)  64-C(  5  0  1)
  65-C(  0  1  5)  66-C(  3  4  3)  67-C(  4  3  3)  68-C(  7  4  7)
  69-C(  6  1  0)  70-C(  1  6  0)  71-C(  2  2  3)  72-C(  7  7  5)
  73-C(  0  6  1)  74-C(  1  0  6)  75-C(  5  7  7)  76-C(  6  0  1)
  77-C(  0  1  6)  78-C(  2  3  2)  79-C(  3  2  2)  80-C(  7  5  7)
  81-C(  7  1  0)  82-C(  1  1  2)  83-C(  0  7  1)  84-C(  1  0  7)
  85-C(  6  7  7)  86-C(  1  2  1)  87-C(  2  2  0)  88-C(  0  2  2)
  89-C(  2  0  2)  90-C(  3  2  0)  91-C(  2  3  0)  92-C(  5  5  7)
  93-C(  6  6  1)  94-C(  0  3  2)  95-C(  2  0  3)  96-C(  1  6  6)
  97-C(  3  0  2)  98-C(  0  2  3)  99-C(  5  7  5) 100-C(  7  5  5)
 101-C(  6  1  6) 102-C(  4  2  0) 103-C(  2  4  0) 104-C(  4  4  6)
 105-C(  6  6  2) 106-C(  0  4  2) 107-C(  2  0  4) 108-C(  2  6  6)
 109-C(  4  0  2) 110-C(  0  2  4) 111-C(  4  6  4) 112-C(  6  4  4)
 113-C(  6  2  6) 114-C(  5  2  0) 115-C(  2  5  0) 116-C(  3  3  5)
 117-C(  6  6  3) 118-C(  0  5  2) 119-C(  2  0  5) 120-C(  3  6  6)
 121-C(  5  0  2) 122-C(  0  2  5) 123-C(  3  5  3) 124-C(  5  3  3)
 125-C(  6  3  6) 126-C(  6  2  0) 127-C(  2  2  4) 128-C(  0  6  2)
 129-C(  2  0  6) 130-C(  4  6  6) 131-C(  2  4  2) 132-C(  3  3  0)
 133-C(  0  3  3) 134-C(  3  0  3) 135-C(  4  3  0) 136-C(  3  4  0)
 137-C(  4  4  7) 138-C(  5  5  1) 139-C(  0  4  3) 140-C(  3  0  4)
 141-C(  1  5  5) 142-C(  4  0  3) 143-C(  0  3  4) 144-C(  4  7  4)
 145-C(  7  4  4) 146-C(  5  1  5) 147-C(  5  3  0) 148-C(  3  3  6)
 149-C(  0  5  3) 150-C(  3  0  5) 151-C(  2  5  5) 152-C(  3  6  3)
 153-R(  4  4  0) 154-R(  0  4  4) 155-R(  4  0  4) 156-C(  3  2  1)
 157-C(  1  2  7) 158-C(  1  3  2) 159-C(  2  1  3) 160-C(  1  7  6)
 161-C(  2  7  1) 162-C(  6  5  7) 163-C(  6  7  1) 164-C(  5  7  6)
 165-C(  7  6  5) 166-C(  1  7  2) 167-C(  1  6  7) 168-C(  4  2  1)
 169-C(  1  3  7) 170-C(  4  5  6) 171-C(  7  6  2) 172-C(  1  4  2)
 173-C(  2  1  4) 174-C(  2  7  6) 175-C(  3  7  1) 176-C(  7  1  3)
 177-C(  5  6  4) 178-C(  6  4  5) 179-C(  6  2  7) 180-C(  6  4  7)
 181-C(  5  7  1) 182-C(  3  4  2) 183-C(  2  1  6) 184-C(  4  7  6)
 185-C(  7  6  4) 186-C(  1  6  2) 187-C(  1  5  7) 188-C(  7  1  5)
 189-C(  2  3  4) 190-C(  4  2  3) 191-C(  6  2  1) 192-C(  5  2  1)
 193-C(  1  4  7) 194-C(  3  4  5) 195-C(  7  6  3) 196-C(  1  5  2)
 197-C(  2  1  5) 198-C(  3  7  6) 199-C(  4  7  1) 200-C(  7  1  4)
 201-C(  4  5  3) 202-C(  5  3  4) 203-C(  6  3  7) 204-C(  4  3  1)
 205-C(  2  3  7) 206-C(  1  4  3) 207-C(  3  1  4) 208-C(  1  6  5)
 209-C(  3  7  2) 210-C(  5  4  7) 211-C(  5  6  1) 212-C(  4  7  5)
 213-C(  7  5  4) 214-C(  2  7  3) 215-C(  1  5  6) 216-C(  5  3  1)
 217-C(  2  4  7) 218-C(  3  4  6) 219-C(  6  5  2) 220-C(  1  5  3)
 221-C(  3  1  5) 222-C(  2  6  5) 223-C(  4  7  2) 224-C(  7  2  4)
 225-C(  4  6  3) 226-C(  6  3  4) 227-C(  5  2  6) 228-C(  5  3  7)
 229-C(  4  6  1) 230-C(  4  5  2) 231-C(  3  2  6) 232-C(  3  7  5)
 233-C(  7  5  3) 234-C(  2  6  3) 235-C(  1  4  6) 236-C(  6  1  4)
 237-C(  2  4  5) 238-C(  5  2  4) 239-C(  6  3  2) 240-C(  6  3  1)
 241-C(  2  3  5) 242-C(  1  6  3) 243-C(  3  1  6) 244-C(  3  6  5)
 245-C(  3  5  2) 246-C(  5  2  7) 247-C(  5  6  3) 248-C(  2  7  5)
 249-C(  7  5  2) 250-C(  2  5  3) 251-C(  3  5  6) 252-C(  5  4  1)
 253-C(  1  5  4) 254-C(  4  1  5) 255-C(  4  3  7) 256-C(  3  7  4)
 257-C(  7  4  3) 258-C(  6  4  2) 259-C(  2  6  4) 260-C(  4  2  6)

 GCALCO - MAX INDICES DIRECT LATTICE VECTOR    14    14    14
 NO.OF VECTORS CREATED 6999 STARS  105 RMAX    60.36183 BOHR
 TTTTTTTTTTTTTTTTTTTTTTTTTTTTTT gordsh1     TELAPSE       22.55 TCPU       22.52

 MATRIX SIZE: P(G)   23983, F(G)   12421, P(G) IRR   13209, F(G) IRR   13209
 MAX G-VECTOR INDEX FOR 1- AND 2-ELECTRON INTEGRALS 247

 TTTTTTTTTTTTTTTTTTTTTTTTTTTTTT INPUT       TELAPSE       22.55 TCPU       22.52
 TTTTTTTTTTTTTTTTTTTTTTTTTTTTTT SYMM        TELAPSE       22.55 TCPU       22.52

 ***** NEW REFERENCE GEOMETRY *****
 TTTTTTTTTTTTTTTTTTTTTTTTTTTTTT INT_SCREEN  TELAPSE       22.55 TCPU       22.52

 DFT PARAMETERS

     ATOM       ELECTRONS   NET CHARGE   R(ANGSTROM)
   1  12  MG     12.0000      0.0000     1.60000000
   2   8  O       8.0000      0.0000     0.74000000

 SIZE OF GRID=      37370
 TTTTTTTTTTTTTTTTTTTTTTTTTTTTTT MAKE_GRID2  TELAPSE       28.29 TCPU       28.27
 BECKE WEIGHT FUNCTION
 RADSAFE =     2.00
 TOLERANCES - DENSITY:10**- 6; POTENTIAL:10**- 9; GRID WGT:10**-14

 RADIAL INTEGRATION  - INTERVALS (POINTS,UPPER LIMIT):            1( 75,  4.0*R)

 ANGULAR INTEGRATION - INTERVALS (ACCURACY LEVEL [N. POINTS] UPPER LIMIT):
  1(  4[  86]   0.2)  2(  8[ 194]   0.5)  3( 12[ 350]   0.9)  4( 16[ 974]   3.5)
  5( 12[ 350]9999.0)
 TTTTTTTTTTTTTTTTTTTTTTTTTTTTTT INT_CALC    TELAPSE       28.32 TCPU       28.29
 CYCLE   0   ALPHA   20.175578  EPSILON    2.932371  DELTA    2.0176E+01
 TTTTTTTTTTTTTTTTTTTTTTTTTTTTTT MOQGAD      TELAPSE       33.21 TCPU       33.18
 TTTTTTTTTTTTTTTTTTTTTTTTTTTTTT CP_MONMON   TELAPSE       35.81 TCPU       35.78
 DIIS TEST: 0.87839E-01 AT CPHF  CYCLE   1 - MIX   60 %
 CYCLE   1   ALPHA   19.455469  EPSILON    2.863401  DELTA   -7.2011E-01
 TTTTTTTTTTTTTTTTTTTTTTTTTTTTTT MOQGAD      TELAPSE       39.06 TCPU       39.04
 TTTTTTTTTTTTTTTTTTTTTTTTTTTTTT CP_MONMON   TELAPSE       41.66 TCPU       41.64
 DIIS TEST: 0.10667E-01 AT CPHF  CYCLE   2 - DIIS ACTIVE - HISTORY:     2 CYCLES
 CYCLE   2   ALPHA   19.616425  EPSILON    2.878817  DELTA    1.6096E-01
 TTTTTTTTTTTTTTTTTTTTTTTTTTTTTT MOQGAD      TELAPSE       44.93 TCPU       44.90
 TTTTTTTTTTTTTTTTTTTTTTTTTTTTTT CP_MONMON   TELAPSE       47.53 TCPU       47.50
 DIIS TEST: 0.72138E-04 AT CPHF  CYCLE   3 - DIIS ACTIVE - HISTORY:     3 CYCLES
 CYCLE   3   ALPHA   19.614520  EPSILON    2.878635  DELTA   -1.9053E-03
 TTTTTTTTTTTTTTTTTTTTTTTTTTTTTT MOQGAD      TELAPSE       50.75 TCPU       50.72
 TTTTTTTTTTTTTTTTTTTTTTTTTTTTTT CP_MONMON   TELAPSE       53.34 TCPU       53.32
 DIIS TEST: 0.32331E-07 AT CPHF  CYCLE   4 - DIIS ACTIVE - HISTORY:     4 CYCLES
 CYCLE   4   ALPHA   19.614266  EPSILON    2.878610  DELTA   -2.5352E-04
 TTTTTTTTTTTTTTTTTTTTTTTTTTTTTT CP_SC       TELAPSE       53.42 TCPU       53.40

 *******************************************************************************

 ELECTRIC FIELD APPLIED ALONG CARTESIAN DIRECTION Y

 *******************************************************************************
 THE NUMBER OF SYMMETRY OPERATORS HAS BEEN REDUCED FROM 48 TO  1

 NEW GRID IN RECIPROCAL SPACE
 *******************************************************************************
 POINTS IN THE IBZ                 260 SHRINKING FACTORS               8  8  8
 *******************************************************************************
 *** K POINTS COORDINATES (OBLIQUE COORDINATES IN UNITS OF SHRINK FAC. )
   1-R(  0  0  0)   2-C(  1  0  0)   3-C(  0  1  0)   4-C(  7  7  7)
   5-C(  0  0  1)   6-C(  2  0  0)   7-C(  0  2  0)   8-C(  6  6  6)
   9-C(  0  0  2)  10-C(  3  0  0)  11-C(  0  3  0)  12-C(  5  5  5)
  13-C(  0  0  3)  14-R(  4  0  0)  15-R(  0  4  0)  16-R(  4  4  4)
  17-R(  0  0  4)  18-C(  1  1  0)  19-C(  0  1  1)  20-C(  1  0  1)
  21-C(  2  1  0)  22-C(  1  2  0)  23-C(  6  6  7)  24-C(  7  7  1)
  25-C(  0  2  1)  26-C(  1  0  2)  27-C(  1  7  7)  28-C(  2  0  1)
  29-C(  0  1  2)  30-C(  6  7  6)  31-C(  7  6  6)  32-C(  7  1  7)
  33-C(  3  1  0)  34-C(  1  3  0)  35-C(  5  5  6)  36-C(  7  7  2)
  37-C(  0  3  1)  38-C(  1  0  3)  39-C(  2  7  7)  40-C(  3  0  1)
  41-C(  0  1  3)  42-C(  5  6  5)  43-C(  6  5  5)  44-C(  7  2  7)
  45-C(  4  1  0)  46-C(  1  4  0)  47-C(  4  4  5)  48-C(  7  7  3)
  49-C(  0  4  1)  50-C(  1  0  4)  51-C(  3  7  7)  52-C(  4  0  1)
  53-C(  0  1  4)  54-C(  4  5  4)  55-C(  5  4  4)  56-C(  7  3  7)
  57-C(  5  1  0)  58-C(  1  5  0)  59-C(  3  3  4)  60-C(  7  7  4)
  61-C(  0  5  1)  62-C(  1  0  5)  63-C(  4  7  7)  64-C(  5  0  1)
  65-C(  0  1  5)  66-C(  3  4  3)  67-C(  4  3  3)  68-C(  7  4  7)
  69-C(  6  1  0)  70-C(  1  6  0)  71-C(  2  2  3)  72-C(  7  7  5)
  73-C(  0  6  1)  74-C(  1  0  6)  75-C(  5  7  7)  76-C(  6  0  1)
  77-C(  0  1  6)  78-C(  2  3  2)  79-C(  3  2  2)  80-C(  7  5  7)
  81-C(  7  1  0)  82-C(  1  1  2)  83-C(  0  7  1)  84-C(  1  0  7)
  85-C(  6  7  7)  86-C(  1  2  1)  87-C(  2  2  0)  88-C(  0  2  2)
  89-C(  2  0  2)  90-C(  3  2  0)  91-C(  2  3  0)  92-C(  5  5  7)
  93-C(  6  6  1)  94-C(  0  3  2)  95-C(  2  0  3)  96-C(  1  6  6)
  97-C(  3  0  2)  98-C(  0  2  3)  99-C(  5  7  5) 100-C(  7  5  5)
 101-C(  6  1  6) 102-C(  4  2  0) 103-C(  2  4  0) 104-C(  4  4  6)
 105-C(  6  6  2) 106-C(  0  4  2) 107-C(  2  0  4) 108-C(  2  6  6)
 109-C(  4  0  2) 110-C(  0  2  4) 111-C(  4  6  4) 112-C(  6  4  4)
 113-C(  6  2  6) 114-C(  5  2  0) 115-C(  2  5  0) 116-C(  3  3  5)
 117-C(  6  6  3) 118-C(  0  5  2) 119-C(  2  0  5) 120-C(  3  6  6)
 121-C(  5  0  2) 122-C(  0  2  5) 123-C(  3  5  3) 124-C(  5  3  3)
 125-C(  6  3  6) 126-C(  6  2  0) 127-C(  2  2  4) 128-C(  0  6  2)
 129-C(  2  0  6) 130-C(  4  6  6) 131-C(  2  4  2) 132-C(  3  3  0)
 133-C(  0  3  3) 134-C(  3  0  3) 135-C(  4  3  0) 136-C(  3  4  0)
 137-C(  4  4  7) 138-C(  5  5  1) 139-C(  0  4  3) 140-C(  3  0  4)
 141-C(  1  5  5) 142-C(  4  0  3) 143-C(  0  3  4) 144-C(  4  7  4)
 145-C(  7  4  4) 146-C(  5  1  5) 147-C(  5  3  0) 148-C(  3  3  6)
 149-C(  0  5  3) 150-C(  3  0  5) 151-C(  2  5  5) 152-C(  3  6  3)
 153-R(  4  4  0) 154-R(  0  4  4) 155-R(  4  0  4) 156-C(  3  2  1)
 157-C(  1  2  7) 158-C(  1  3  2) 159-C(  2  1  3) 160-C(  1  7  6)
 161-C(  2  7  1) 162-C(  6  5  7) 163-C(  6  7  1) 164-C(  5  7  6)
 165-C(  7  6  5) 166-C(  1  7  2) 167-C(  1  6  7) 168-C(  4  2  1)
 169-C(  1  3  7) 170-C(  4  5  6) 171-C(  7  6  2) 172-C(  1  4  2)
 173-C(  2  1  4) 174-C(  2  7  6) 175-C(  3  7  1) 176-C(  7  1  3)
 177-C(  5  6  4) 178-C(  6  4  5) 179-C(  6  2  7) 180-C(  6  4  7)
 181-C(  5  7  1) 182-C(  3  4  2) 183-C(  2  1  6) 184-C(  4  7  6)
 185-C(  7  6  4) 186-C(  1  6  2) 187-C(  1  5  7) 188-C(  7  1  5)
 189-C(  2  3  4) 190-C(  4  2  3) 191-C(  6  2  1) 192-C(  5  2  1)
 193-C(  1  4  7) 194-C(  3  4  5) 195-C(  7  6  3) 196-C(  1  5  2)
 197-C(  2  1  5) 198-C(  3  7  6) 199-C(  4  7  1) 200-C(  7  1  4)
 201-C(  4  5  3) 202-C(  5  3  4) 203-C(  6  3  7) 204-C(  4  3  1)
 205-C(  2  3  7) 206-C(  1  4  3) 207-C(  3  1  4) 208-C(  1  6  5)
 209-C(  3  7  2) 210-C(  5  4  7) 211-C(  5  6  1) 212-C(  4  7  5)
 213-C(  7  5  4) 214-C(  2  7  3) 215-C(  1  5  6) 216-C(  5  3  1)
 217-C(  2  4  7) 218-C(  3  4  6) 219-C(  6  5  2) 220-C(  1  5  3)
 221-C(  3  1  5) 222-C(  2  6  5) 223-C(  4  7  2) 224-C(  7  2  4)
 225-C(  4  6  3) 226-C(  6  3  4) 227-C(  5  2  6) 228-C(  5  3  7)
 229-C(  4  6  1) 230-C(  4  5  2) 231-C(  3  2  6) 232-C(  3  7  5)
 233-C(  7  5  3) 234-C(  2  6  3) 235-C(  1  4  6) 236-C(  6  1  4)
 237-C(  2  4  5) 238-C(  5  2  4) 239-C(  6  3  2) 240-C(  6  3  1)
 241-C(  2  3  5) 242-C(  1  6  3) 243-C(  3  1  6) 244-C(  3  6  5)
 245-C(  3  5  2) 246-C(  5  2  7) 247-C(  5  6  3) 248-C(  2  7  5)
 249-C(  7  5  2) 250-C(  2  5  3) 251-C(  3  5  6) 252-C(  5  4  1)
 253-C(  1  5  4) 254-C(  4  1  5) 255-C(  4  3  7) 256-C(  3  7  4)
 257-C(  7  4  3) 258-C(  6  4  2) 259-C(  2  6  4) 260-C(  4  2  6)

 GCALCO - MAX INDICES DIRECT LATTICE VECTOR    14    14    14
 NO.OF VECTORS CREATED 6999 STARS  105 RMAX    60.36183 BOHR
 TTTTTTTTTTTTTTTTTTTTTTTTTTTTTT gordsh1     TELAPSE       55.26 TCPU       55.23

 MATRIX SIZE: P(G)   23983, F(G)   12421, P(G) IRR   13209, F(G) IRR   13209
 MAX G-VECTOR INDEX FOR 1- AND 2-ELECTRON INTEGRALS 247

 TTTTTTTTTTTTTTTTTTTTTTTTTTTTTT INPUT       TELAPSE       55.26 TCPU       55.23
 TTTTTTTTTTTTTTTTTTTTTTTTTTTTTT SYMM        TELAPSE       55.26 TCPU       55.23

 ***** NEW REFERENCE GEOMETRY *****
 TTTTTTTTTTTTTTTTTTTTTTTTTTTTTT INT_SCREEN  TELAPSE       55.26 TCPU       55.23

 DFT PARAMETERS

     ATOM       ELECTRONS   NET CHARGE   R(ANGSTROM)
   1  12  MG     12.0000      0.0000     1.60000000
   2   8  O       8.0000      0.0000     0.74000000

 SIZE OF GRID=      37370
 TTTTTTTTTTTTTTTTTTTTTTTTTTTTTT MAKE_GRID2  TELAPSE       61.00 TCPU       60.97
 BECKE WEIGHT FUNCTION
 RADSAFE =     2.00
 TOLERANCES - DENSITY:10**- 6; POTENTIAL:10**- 9; GRID WGT:10**-14

 RADIAL INTEGRATION  - INTERVALS (POINTS,UPPER LIMIT):            1( 75,  4.0*R)

 ANGULAR INTEGRATION - INTERVALS (ACCURACY LEVEL [N. POINTS] UPPER LIMIT):
  1(  4[  86]   0.2)  2(  8[ 194]   0.5)  3( 12[ 350]   0.9)  4( 16[ 974]   3.5)
  5( 12[ 350]9999.0)
 TTTTTTTTTTTTTTTTTTTTTTTTTTTTTT INT_CALC    TELAPSE       61.03 TCPU       61.00
 CYCLE   0   ALPHA   20.175591  EPSILON    2.932373  DELTA    2.0176E+01
 TTTTTTTTTTTTTTTTTTTTTTTTTTTTTT MOQGAD      TELAPSE       65.89 TCPU       65.86
 TTTTTTTTTTTTTTTTTTTTTTTTTTTTTT CP_MONMON   TELAPSE       68.51 TCPU       68.48
 DIIS TEST: 0.87839E-01 AT CPHF  CYCLE   1 - MIX   60 %
 CYCLE   1   ALPHA   19.455482  EPSILON    2.863402  DELTA   -7.2011E-01
 TTTTTTTTTTTTTTTTTTTTTTTTTTTTTT MOQGAD      TELAPSE       71.76 TCPU       71.73
 TTTTTTTTTTTTTTTTTTTTTTTTTTTTTT CP_MONMON   TELAPSE       74.38 TCPU       74.35
 DIIS TEST: 0.10667E-01 AT CPHF  CYCLE   2 - DIIS ACTIVE - HISTORY:     2 CYCLES
 CYCLE   2   ALPHA   19.616439  EPSILON    2.878818  DELTA    1.6096E-01
 TTTTTTTTTTTTTTTTTTTTTTTTTTTTTT MOQGAD      TELAPSE       77.65 TCPU       77.62
 TTTTTTTTTTTTTTTTTTTTTTTTTTTTTT CP_MONMON   TELAPSE       80.27 TCPU       80.24
 DIIS TEST: 0.72139E-04 AT CPHF  CYCLE   3 - DIIS ACTIVE - HISTORY:     3 CYCLES
 CYCLE   3   ALPHA   19.614533  EPSILON    2.878636  DELTA   -1.9053E-03
 TTTTTTTTTTTTTTTTTTTTTTTTTTTTTT MOQGAD      TELAPSE       83.56 TCPU       83.53
 TTTTTTTTTTTTTTTTTTTTTTTTTTTTTT CP_MONMON   TELAPSE       86.18 TCPU       86.15
 DIIS TEST: 0.32331E-07 AT CPHF  CYCLE   4 - DIIS ACTIVE - HISTORY:     4 CYCLES
 CYCLE   4   ALPHA   19.614280  EPSILON    2.878612  DELTA   -2.5352E-04
 TTTTTTTTTTTTTTTTTTTTTTTTTTTTTT CP_SC       TELAPSE       86.26 TCPU       86.24

 *******************************************************************************

 ELECTRIC FIELD APPLIED ALONG CARTESIAN DIRECTION Z

 *******************************************************************************
 THE NUMBER OF SYMMETRY OPERATORS HAS BEEN REDUCED FROM 48 TO  1

 NEW GRID IN RECIPROCAL SPACE
 *******************************************************************************
 POINTS IN THE IBZ                 260 SHRINKING FACTORS               8  8  8
 *******************************************************************************
 *** K POINTS COORDINATES (OBLIQUE COORDINATES IN UNITS OF SHRINK FAC. )
   1-R(  0  0  0)   2-C(  1  0  0)   3-C(  0  1  0)   4-C(  7  7  7)
   5-C(  0  0  1)   6-C(  2  0  0)   7-C(  0  2  0)   8-C(  6  6  6)
   9-C(  0  0  2)  10-C(  3  0  0)  11-C(  0  3  0)  12-C(  5  5  5)
  13-C(  0  0  3)  14-R(  4  0  0)  15-R(  0  4  0)  16-R(  4  4  4)
  17-R(  0  0  4)  18-C(  1  1  0)  19-C(  0  1  1)  20-C(  1  0  1)
  21-C(  2  1  0)  22-C(  1  2  0)  23-C(  6  6  7)  24-C(  7  7  1)
  25-C(  0  2  1)  26-C(  1  0  2)  27-C(  1  7  7)  28-C(  2  0  1)
  29-C(  0  1  2)  30-C(  6  7  6)  31-C(  7  6  6)  32-C(  7  1  7)
  33-C(  3  1  0)  34-C(  1  3  0)  35-C(  5  5  6)  36-C(  7  7  2)
  37-C(  0  3  1)  38-C(  1  0  3)  39-C(  2  7  7)  40-C(  3  0  1)
  41-C(  0  1  3)  42-C(  5  6  5)  43-C(  6  5  5)  44-C(  7  2  7)
  45-C(  4  1  0)  46-C(  1  4  0)  47-C(  4  4  5)  48-C(  7  7  3)
  49-C(  0  4  1)  50-C(  1  0  4)  51-C(  3  7  7)  52-C(  4  0  1)
  53-C(  0  1  4)  54-C(  4  5  4)  55-C(  5  4  4)  56-C(  7  3  7)
  57-C(  5  1  0)  58-C(  1  5  0)  59-C(  3  3  4)  60-C(  7  7  4)
  61-C(  0  5  1)  62-C(  1  0  5)  63-C(  4  7  7)  64-C(  5  0  1)
  65-C(  0  1  5)  66-C(  3  4  3)  67-C(  4  3  3)  68-C(  7  4  7)
  69-C(  6  1  0)  70-C(  1  6  0)  71-C(  2  2  3)  72-C(  7  7  5)
  73-C(  0  6  1)  74-C(  1  0  6)  75-C(  5  7  7)  76-C(  6  0  1)
  77-C(  0  1  6)  78-C(  2  3  2)  79-C(  3  2  2)  80-C(  7  5  7)
  81-C(  7  1  0)  82-C(  1  1  2)  83-C(  0  7  1)  84-C(  1  0  7)
  85-C(  6  7  7)  86-C(  1  2  1)  87-C(  2  2  0)  88-C(  0  2  2)
  89-C(  2  0  2)  90-C(  3  2  0)  91-C(  2  3  0)  92-C(  5  5  7)
  93-C(  6  6  1)  94-C(  0  3  2)  95-C(  2  0  3)  96-C(  1  6  6)
  97-C(  3  0  2)  98-C(  0  2  3)  99-C(  5  7  5) 100-C(  7  5  5)
 101-C(  6  1  6) 102-C(  4  2  0) 103-C(  2  4  0) 104-C(  4  4  6)
 105-C(  6  6  2) 106-C(  0  4  2) 107-C(  2  0  4) 108-C(  2  6  6)
 109-C(  4  0  2) 110-C(  0  2  4) 111-C(  4  6  4) 112-C(  6  4  4)
 113-C(  6  2  6) 114-C(  5  2  0) 115-C(  2  5  0) 116-C(  3  3  5)
 117-C(  6  6  3) 118-C(  0  5  2) 119-C(  2  0  5) 120-C(  3  6  6)
 121-C(  5  0  2) 122-C(  0  2  5) 123-C(  3  5  3) 124-C(  5  3  3)
 125-C(  6  3  6) 126-C(  6  2  0) 127-C(  2  2  4) 128-C(  0  6  2)
 129-C(  2  0  6) 130-C(  4  6  6) 131-C(  2  4  2) 132-C(  3  3  0)
 133-C(  0  3  3) 134-C(  3  0  3) 135-C(  4  3  0) 136-C(  3  4  0)
 137-C(  4  4  7) 138-C(  5  5  1) 139-C(  0  4  3) 140-C(  3  0  4)
 141-C(  1  5  5) 142-C(  4  0  3) 143-C(  0  3  4) 144-C(  4  7  4)
 145-C(  7  4  4) 146-C(  5  1  5) 147-C(  5  3  0) 148-C(  3  3  6)
 149-C(  0  5  3) 150-C(  3  0  5) 151-C(  2  5  5) 152-C(  3  6  3)
 153-R(  4  4  0) 154-R(  0  4  4) 155-R(  4  0  4) 156-C(  3  2  1)
 157-C(  1  2  7) 158-C(  1  3  2) 159-C(  2  1  3) 160-C(  1  7  6)
 161-C(  2  7  1) 162-C(  6  5  7) 163-C(  6  7  1) 164-C(  5  7  6)
 165-C(  7  6  5) 166-C(  1  7  2) 167-C(  1  6  7) 168-C(  4  2  1)
 169-C(  1  3  7) 170-C(  4  5  6) 171-C(  7  6  2) 172-C(  1  4  2)
 173-C(  2  1  4) 174-C(  2  7  6) 175-C(  3  7  1) 176-C(  7  1  3)
 177-C(  5  6  4) 178-C(  6  4  5) 179-C(  6  2  7) 180-C(  6  4  7)
 181-C(  5  7  1) 182-C(  3  4  2) 183-C(  2  1  6) 184-C(  4  7  6)
 185-C(  7  6  4) 186-C(  1  6  2) 187-C(  1  5  7) 188-C(  7  1  5)
 189-C(  2  3  4) 190-C(  4  2  3) 191-C(  6  2  1) 192-C(  5  2  1)
 193-C(  1  4  7) 194-C(  3  4  5) 195-C(  7  6  3) 196-C(  1  5  2)
 197-C(  2  1  5) 198-C(  3  7  6) 199-C(  4  7  1) 200-C(  7  1  4)
 201-C(  4  5  3) 202-C(  5  3  4) 203-C(  6  3  7) 204-C(  4  3  1)
 205-C(  2  3  7) 206-C(  1  4  3) 207-C(  3  1  4) 208-C(  1  6  5)
 209-C(  3  7  2) 210-C(  5  4  7) 211-C(  5  6  1) 212-C(  4  7  5)
 213-C(  7  5  4) 214-C(  2  7  3) 215-C(  1  5  6) 216-C(  5  3  1)
 217-C(  2  4  7) 218-C(  3  4  6) 219-C(  6  5  2) 220-C(  1  5  3)
 221-C(  3  1  5) 222-C(  2  6  5) 223-C(  4  7  2) 224-C(  7  2  4)
 225-C(  4  6  3) 226-C(  6  3  4) 227-C(  5  2  6) 228-C(  5  3  7)
 229-C(  4  6  1) 230-C(  4  5  2) 231-C(  3  2  6) 232-C(  3  7  5)
 233-C(  7  5  3) 234-C(  2  6  3) 235-C(  1  4  6) 236-C(  6  1  4)
 237-C(  2  4  5) 238-C(  5  2  4) 239-C(  6  3  2) 240-C(  6  3  1)
 241-C(  2  3  5) 242-C(  1  6  3) 243-C(  3  1  6) 244-C(  3  6  5)
 245-C(  3  5  2) 246-C(  5  2  7) 247-C(  5  6  3) 248-C(  2  7  5)
 249-C(  7  5  2) 250-C(  2  5  3) 251-C(  3  5  6) 252-C(  5  4  1)
 253-C(  1  5  4) 254-C(  4  1  5) 255-C(  4  3  7) 256-C(  3  7  4)
 257-C(  7  4  3) 258-C(  6  4  2) 259-C(  2  6  4) 260-C(  4  2  6)

 GCALCO - MAX INDICES DIRECT LATTICE VECTOR    14    14    14
 NO.OF VECTORS CREATED 6999 STARS  105 RMAX    60.36183 BOHR
 TTTTTTTTTTTTTTTTTTTTTTTTTTTTTT gordsh1     TELAPSE       88.10 TCPU       88.07

 MATRIX SIZE: P(G)   23983, F(G)   12421, P(G) IRR   13209, F(G) IRR   13209
 MAX G-VECTOR INDEX FOR 1- AND 2-ELECTRON INTEGRALS 247

 TTTTTTTTTTTTTTTTTTTTTTTTTTTTTT INPUT       TELAPSE       88.10 TCPU       88.07
 TTTTTTTTTTTTTTTTTTTTTTTTTTTTTT SYMM        TELAPSE       88.10 TCPU       88.07

 ***** NEW REFERENCE GEOMETRY *****
 TTTTTTTTTTTTTTTTTTTTTTTTTTTTTT INT_SCREEN  TELAPSE       88.10 TCPU       88.07

 DFT PARAMETERS

     ATOM       ELECTRONS   NET CHARGE   R(ANGSTROM)
   1  12  MG     12.0000      0.0000     1.60000000
   2   8  O       8.0000      0.0000     0.74000000

 SIZE OF GRID=      37370
 TTTTTTTTTTTTTTTTTTTTTTTTTTTTTT MAKE_GRID2  TELAPSE       93.91 TCPU       93.88
 BECKE WEIGHT FUNCTION
 RADSAFE =     2.00
 TOLERANCES - DENSITY:10**- 6; POTENTIAL:10**- 9; GRID WGT:10**-14

 RADIAL INTEGRATION  - INTERVALS (POINTS,UPPER LIMIT):            1( 75,  4.0*R)

 ANGULAR INTEGRATION - INTERVALS (ACCURACY LEVEL [N. POINTS] UPPER LIMIT):
  1(  4[  86]   0.2)  2(  8[ 194]   0.5)  3( 12[ 350]   0.9)  4( 16[ 974]   3.5)
  5( 12[ 350]9999.0)
 TTTTTTTTTTTTTTTTTTTTTTTTTTTTTT INT_CALC    TELAPSE       93.94 TCPU       93.91
 CYCLE   0   ALPHA   20.175640  EPSILON    2.932377  DELTA    2.0176E+01
 TTTTTTTTTTTTTTTTTTTTTTTTTTTTTT MOQGAD      TELAPSE       98.83 TCPU       98.80
 TTTTTTTTTTTTTTTTTTTTTTTTTTTTTT CP_MONMON   TELAPSE      101.46 TCPU      101.43
 DIIS TEST: 0.87839E-01 AT CPHF  CYCLE   1 - MIX   60 %
 CYCLE   1   ALPHA   19.455533  EPSILON    2.863407  DELTA   -7.2011E-01
 TTTTTTTTTTTTTTTTTTTTTTTTTTTTTT MOQGAD      TELAPSE      104.74 TCPU      104.71
 TTTTTTTTTTTTTTTTTTTTTTTTTTTTTT CP_MONMON   TELAPSE      107.36 TCPU      107.33
 DIIS TEST: 0.10667E-01 AT CPHF  CYCLE   2 - DIIS ACTIVE - HISTORY:     2 CYCLES
 CYCLE   2   ALPHA   19.616489  EPSILON    2.878823  DELTA    1.6096E-01
 TTTTTTTTTTTTTTTTTTTTTTTTTTTTTT MOQGAD      TELAPSE      110.59 TCPU      110.56
 TTTTTTTTTTTTTTTTTTTTTTTTTTTTTT CP_MONMON   TELAPSE      113.21 TCPU      113.18
 DIIS TEST: 0.72139E-04 AT CPHF  CYCLE   3 - DIIS ACTIVE - HISTORY:     3 CYCLES
 CYCLE   3   ALPHA   19.614583  EPSILON    2.878641  DELTA   -1.9053E-03
 TTTTTTTTTTTTTTTTTTTTTTTTTTTTTT MOQGAD      TELAPSE      116.48 TCPU      116.45
 TTTTTTTTTTTTTTTTTTTTTTTTTTTTTT CP_MONMON   TELAPSE      119.10 TCPU      119.07
 DIIS TEST: 0.32331E-07 AT CPHF  CYCLE   4 - DIIS ACTIVE - HISTORY:     4 CYCLES
 CYCLE   4   ALPHA   19.614330  EPSILON    2.878616  DELTA   -2.5352E-04
 TTTTTTTTTTTTTTTTTTTTTTTTTTTTTT CP_SC       TELAPSE      119.17 TCPU      119.14

 *******************************************************************************

 POLARIZABILITY (ALPHA), DIELECTRIC (EPSILON) AND FIRST-ORDER ELECTRIC
 SUSCEPTIBILITY (CHI(1)) TENSORS (INDEPENDENT COMPONENTS)

  FR.(eV) COMP.   ALPHA(Re,Im)           EPSILON(Re,Im)                CHI(1)
  0.000   XX      19.6143       0.0000       2.8786       0.0000       1.8786
  0.000   XY      -0.0000       0.0000      -0.0000       0.0000      -0.0000
  0.000   XZ      -0.0000       0.0000      -0.0000       0.0000      -0.0000
  0.000   YY      19.6143       0.0000       2.8786       0.0000       1.8786
  0.000   YZ      -0.0000       0.0000      -0.0000       0.0000      -0.0000
  0.000   ZZ      19.6143       0.0000       2.8786       0.0000       1.8786

 DIELECTRIC TENSOR

 TENSOR IN PRINCIPAL AXES SYSTEM
 AA  2.878610E+00 BB  2.878612E+00 CC  2.878616E+00

 REFRACTIVE INDICES 
 AA  1.696647E+00 BB  1.696647E+00 CC  1.696649E+00

 OPTICALLY ISOTROPIC CRYSTAL

 EPSILON=N**2=1+CHI(1)=1+ALPHA*4*PI/V,   4*PI/V=   0.09578 BOHR**(-3)
 ALPHA IN BOHR**3; EPSILON AND CHI(1) ARE DIMENSIONLESS.
 *******************************************************************************


 SIZE OF GRID=      37370
 TTTTTTTTTTTTTTTTTTTTTTTTTTTTTT MAKE_GRID2  TELAPSE      126.92 TCPU      126.89
 BECKE WEIGHT FUNCTION
 RADSAFE =     2.00
 TOLERANCES - DENSITY:10**- 6; POTENTIAL:10**- 9; GRID WGT:10**-14

 RADIAL INTEGRATION  - INTERVALS (POINTS,UPPER LIMIT):            1( 75,  4.0*R)

 ANGULAR INTEGRATION - INTERVALS (ACCURACY LEVEL [N. POINTS] UPPER LIMIT):
  1(  4[  86]   0.2)  2(  8[ 194]   0.5)  3( 12[ 350]   0.9)  4( 16[ 974]   3.5)
  5( 12[ 350]9999.0)
 *******************************************************************************

 FIRST HYPERPOLARIZABILITY (BETA) AND SECOND ELECTRIC SUSCEPTIBILITY (CHI(2))
 TENSORS (INDEPENDENT COMPONENTS)

  COMPONENT      BETA                        CHI(2)       d(MKS)       d(cgs)
 *******************************************************************************

     XXX    0.0000E+00  ( -4.0349E-05)   0.0000E+00   0.0000E+00   0.0000E+00
     XXY   -2.1176E-22  ( -1.3401E-05)  -1.0141E-23  -9.8604E-24  -2.3524E-25
     XXZ    1.4117E-22  ( -1.3392E-05)   6.7606E-24   6.5736E-24   1.5683E-25
     XYY    7.0586E-23  ( -5.3102E-06)   3.3803E-24   3.2868E-24   7.8413E-26
     XYZ   -4.4116E-24  (  2.8593E-07)  -2.1127E-25  -2.0543E-25  -4.9008E-27
     XZZ    0.0000E+00  (  2.4800E-05)   0.0000E+00   0.0000E+00   0.0000E+00
     YYY   -7.0586E-23  ( -1.6073E-05)  -3.3803E-24  -3.2868E-24  -7.8413E-26
     YYZ   -1.2353E-22  ( -5.3042E-06)  -5.9155E-24  -5.7519E-24  -1.3722E-25
     YZZ    0.0000E+00  (  2.4800E-05)   0.0000E+00   0.0000E+00   0.0000E+00
     ZZZ   -1.4117E-22  (  7.4233E-05)  -6.7606E-24  -6.5736E-24  -1.5683E-25
 *******************************************************************************
 CHI(2) = BETA*2PI/V

 BETA AND CHI(2) IN A.U.:    [BETA] = M**(-1/2) L**(7/2) T
                             [CHI(2)] = 1/F
                             (L=LENGTH, M=MASS, T=TIME, F=FIELD INTENSITY)

 ELECTRIC SUSCEPTIBILITY IN THE SECOND HARMONIC GENERATION (SHG) CONVENTION IS:
                   d(A.U.)= 1/2 CHI(2)
                   d(MKS) = d(A.U.)/0.514220632 pm/V
                   d(CGS) = d(A.U.)/(4PI*1.7152535)  10**(-7) esu

 FIELD INTENSITY: 1 A.U. = 0.514220632*10**(11) V/m = 1.7152535*10**7 esu
 BEWARE:                CHI(2)=P/(E0*F**2)   (MKS)
                        CHI(2)=P/F**2        (CGS)
 WHERE P IS THE POLARIZATION VECTOR AND F IS THE APPLIED ELECTRIC FIELD.
 CONSISTENCY IS  PRESERVED BY MULTIPLYING THE CGS VALUE TIMES THE PERMITTIVITY
 OF THE VACUUM, E0 (CONVERSION FACTORS FROM www.physics.nist.gov/constants).
 IN PARENTHESIS: BETA BEFORE SYMMETRIZATION.

 *******************************************************************************


 GCALCO - MAX INDICES DIRECT LATTICE VECTOR    14    14    14
 NO.OF VECTORS CREATED 6999 STARS  105 RMAX    60.36183 BOHR

 CAPPA:IS1  8;IS2  8;IS3  8; K PTS MONK NET  29; SYMMOPS:K SPACE  48;G SPACE  48

 TTTTTTTTTTTTTTTTTTTTTTTTTTTTTT gordsh1     TELAPSE      127.04 TCPU      127.01

 MATRIX SIZE: P(G)   23983, F(G)   12421, P(G) IRR    1358, F(G) IRR    1358
 MAX G-VECTOR INDEX FOR 1- AND 2-ELECTRON INTEGRALS 247

 TTTTTTTTTTTTTTTTTTTTTTTTTTTTTT INPUT       TELAPSE      127.04 TCPU      127.01

 THERE ARE NO SYMMETRY ALLOWED DIRECTIONS
 TTTTTTTTTTTTTTTTTTTTTTTTTTTTTT SYMM        TELAPSE      127.04 TCPU      127.01
 TTTTTTTTTTTTTTTTTTTTTTTTTTTTTT INT_SCREEN  TELAPSE      127.04 TCPU      127.01
 
 COMPUTING IR TENSOR ALONG DIRECTION X
 COMPUTING IR TENSOR ALONG DIRECTION Y
 COMPUTING IR TENSOR ALONG DIRECTION Z
 
 TTTTTTTTTTTTTTTTTTTTTTTTTTTTTT IR TENSOR   TELAPSE      625.15 TCPU      625.10
 

 *******************************************************************************
 *                                                                             *
 *                                                                             *
 *         FFFFF  RRRR   EEEE   QQQ   U   U  EEEE  N   N   CCC  Y   Y          *
 *         F      R   R  E     Q   Q  U   U  E     NN  N  C      Y Y           *
 *         FFF    RRRR   EEEE  Q   Q  U   U  EEEE  N N N  C       Y            *
 *         F      R   R  E     Q  QQ  U   U  E     N  NN  C       Y            *
 *         F      R   R  EEEE   QQ Q   UUU   EEEE  N   N   CCC    Y            *
 *                                                                             *
 *                                                                             *
 * CALCULATION OF PHONON FREQUENCIES AT THE GAMMA POINT.                       *
 *                                                                             *
 * SYMMETRY IS EXPLOITED TO BUILD THE TOTAL HESSIAN MATRIX.                    *
 * (F. PASCALE PHD THESIS TURIN-PARIS 2002)                                    *
 *                                                                             *
 *******************************************************************************


 * INTENSITIES COMPUTED VIA THE CPHF ANALYTICAL APPROACH                       *
 *                                                                             *
 * REFERENCES TO BE QUOTED WHEN USING THIS MODULE:                             *
 *                                                                             *
 * F. Pascale, C.M. Zicovich-Wilson, F. Lopez, B. Civalleri                    *
 * R. Orlando, R. Dovesi                                                       *
 * The calculation of the vibration frequencies of crystalline                 *
 * compounds and its implementation in the CRYSTAL code                        *
 * J. Comput. Chem. 25 (2004) 888-897                                          *
 *                                                                             *
 * C.M. Zicovich-Wilson, F. Pascale, C. Roetti, V.R. Saunders,                 *
 * R. Orlando, R. Dovesi                                                       *
 * The calculation of the vibration frequencies of alpha-quartz:               *
 * the effect of hamiltonian and basis set                                     *
 * J. Comput. Chem. 25 (2004) 1873-1881                                        *
 *******************************************************************************


 *                                                                             *
 * FOR THE ANALYTICAL IR INTENSITIES MODULE PLEASE CITE:                       *
 *                                                                             *
 * L. Maschio, B. Kirtman, R. Orlando, M. Rerat,                               *
 * Ab initio analytical infrared intensities for periodic systems              *
 * through a coupled perturbed Hartree-Fock/Kohn-Sham method                   *
 * J. Chem. Phys. 137, 204113 (2012)                                           *
 *******************************************************************************



 ATOMS ISOTOPIC MASS (AMU) FOR FREQUENCY CALCULATION 

    1 MG     23.9850    2 O      15.9949

 INFORMATION CONCERNING THE SCF+GRADIENT CALCULATIONS REQUIRED FOR
 GENERATING FREQUENCIES. IN PRINCIPLE 3N+1 SCF + GRADIENT
 CALCULATIONS  ARE REQUIRED;
 FOR EACH OF THEM THE REMAINING POINT SYMMETRY IS INDICATED.
 POINT SYMMETRY PERMITS TO GENERATE GRADIENTS FOR DISPLACEMENT B 
 STARTING FROM THE GRADIENT GENERATED BY DISPLACEMENT A.

   N   LABEL SYMBOL DISPLACEMENT     SYM. 

   1     EQUILIBRIUM GEOMETRY           48

   2      1   MG           DX        GENERATED BY TRANSLATIONAL INVARIANCE
   3      1   MG           DY        GENERATED BY TRANSLATIONAL INVARIANCE
   4      1   MG           DZ        GENERATED BY TRANSLATIONAL INVARIANCE
   5      2   O            DX           8
   6      2   O            DY        GENERATED FROM LINE X WITH OP   6
   7      2   O            DZ        GENERATED FROM LINE X WITH OP   5
 USE OF RESIDUAL SYMMETRY AFTER DISPLACEMENT

 NUMERICAL GRADIENT COMPUTED WITH A SINGLE DISPLACEMENT (+DX) FOR EACH
 CARTESIAN COORDINATE WITH RESPECT TO THE EQUILIBRIUM CONFIGURATION
 DX=  0.003 ANGSTROM
 NUMBER OF IRREDUCIBLE ATOMS                     2
 NUMBER OF SCF+GRADIENT CALCULATIONS             2

  ATOM  SYMOP  ORDER
    1     48      6
    2     48      6

 ATOM  : IRREDUCIBLE ATOM
 SYMOP : NUMBER OF SYMMETRY OPERATORS THAT DOESN'T MOVE THE IRREDUCIBLE ATOM
 ORDER : MAXIMUM ORDER AMONG THE OPERATORS OF THE IRREDUCIBLE ATOM

 *******************************************************************************


 GCALCO - MAX INDICES DIRECT LATTICE VECTOR    14    14    14
 NO.OF VECTORS CREATED 6999 STARS  105 RMAX    60.36183 BOHR

 CAPPA:IS1  8;IS2  8;IS3  8; K PTS MONK NET  29; SYMMOPS:K SPACE  48;G SPACE  48

 TTTTTTTTTTTTTTTTTTTTTTTTTTTTTT gordsh1     TELAPSE      625.16 TCPU      625.10

 MATRIX SIZE: P(G)   23983, F(G)   12421, P(G) IRR    1358, F(G) IRR    1358
 MAX G-VECTOR INDEX FOR 1- AND 2-ELECTRON INTEGRALS 247

 TTTTTTTTTTTTTTTTTTTTTTTTTTTTTT INPUT       TELAPSE      625.16 TCPU      625.10

 THERE ARE NO SYMMETRY ALLOWED DIRECTIONS
 TTTTTTTTTTTTTTTTTTTTTTTTTTTTTT SYMM        TELAPSE      625.16 TCPU      625.11
 TTTTTTTTTTTTTTTTTTTTTTTTTTTTTT INT_SCREEN  TELAPSE      625.16 TCPU      625.11

 DFT PARAMETERS

     ATOM       ELECTRONS   NET CHARGE   R(ANGSTROM)
   1  12  MG     12.0000      0.0000     1.60000000
   2   8  O       8.0000      0.0000     0.74000000

 SIZE OF GRID=       1311
 TTTTTTTTTTTTTTTTTTTTTTTTTTTTTT MAKE_GRID2  TELAPSE      625.37 TCPU      625.31
 BECKE WEIGHT FUNCTION
 RADSAFE =     2.00
 TOLERANCES - DENSITY:10**- 6; POTENTIAL:10**- 9; GRID WGT:10**-14

 RADIAL INTEGRATION  - INTERVALS (POINTS,UPPER LIMIT):            1( 75,  4.0*R)

 ANGULAR INTEGRATION - INTERVALS (ACCURACY LEVEL [N. POINTS] UPPER LIMIT):
  1(  4[  86]   0.2)  2(  8[ 194]   0.5)  3( 12[ 350]   0.9)  4( 16[ 974]   3.5)
  5( 12[ 350]9999.0)
 TTTTTTTTTTTTTTTTTTTTTTTTTTTTTT INT_CALC    TELAPSE      625.39 TCPU      625.34

 *******************************************************************************
 MgO - PBE/pob-DVZVP-rev2 - harmonic freq + IR intensities (CPHF)                
 CRYSTAL - SCF - TYPE OF CALCULATION :  RESTRICTED CLOSED SHELL
 *******************************************************************************

 CAPPA:IS1  8;IS2  8;IS3  8; K PTS MONK NET  29; SYMMOPS:K SPACE  48;G SPACE  48

 TTTTTTTTTTTTTTTTTTTTTTTTTTTTTT SDIK        TELAPSE      625.39 TCPU      625.34

 AAAAAAAAAAAAAAAAAAAAAAAAAAAAAAAAAAAAAAAAAAAAAAAAAAAAAAAAAAAAAAAAAAAAAAAAAAAAAAA
         ATOMIC WAVEFUNCTION(S)


 NUCLEAR CHARGE 12.0  SYMMETRY SPECIES            S    P
 N. ELECTRONS   12.0  NUMBER OF PRIMITIVE GTOS   10    6
                      NUMBER OF CONTRACTED GTOS   4    2
                      NUMBER OF CLOSED SHELLS     3    1
                      OPEN SHELL OCCUPATION       0    0

  ZNUC  SCFIT    TOTAL HF ENERGY   KINETIC ENERGY   VIRIAL THEOREM ACCURACY
  12.0     9    -1.994602712E+02  1.994291603E+02 -2.000155999E+00  2.6E-06

 NUCLEAR CHARGE  8.0  SYMMETRY SPECIES            S    P
 N. ELECTRONS    8.0  NUMBER OF PRIMITIVE GTOS    7    4
                      NUMBER OF CONTRACTED GTOS   3    2
                      NUMBER OF CLOSED SHELLS     2    0
                      OPEN SHELL OCCUPATION       0    4

  ZNUC  SCFIT    TOTAL HF ENERGY   KINETIC ENERGY   VIRIAL THEOREM ACCURACY
   8.0    13    -7.471200414E+01  7.474432650E+01 -1.999567561E+00  2.0E-06

 AAAAAAAAAAAAAAAAAAAAAAAAAAAAAAAAAAAAAAAAAAAAAAAAAAAAAAAAAAAAAAAAAAAAAAAAAAAAAAA

 TTTTTTTTTTTTTTTTTTTTTTTTTTTTTT MOQGAD      TELAPSE      625.41 TCPU      625.35
 TTTTTTTTTTTTTTTTTTTTTTTTTTTTTT SHELLXN     TELAPSE      627.17 TCPU      627.12
 TTTTTTTTTTTTTTTTTTTTTTTTTTTTTT MONMO3      TELAPSE      627.19 TCPU      627.14
 NUMERICALLY INTEGRATED DENSITY     20.0000538819
 TTTTTTTTTTTTTTTTTTTTTTTTTTTTTT NUMDFT      TELAPSE      627.47 TCPU      627.41
 CYC   0 ETOT(AU) -2.751699911889E+02 DETOT -2.75E+02 tst  0.00E+00 PX  1.00E+00
 TTTTTTTTTTTTTTTTTTTTTTTTTTTTTT DIIS        TELAPSE      627.47 TCPU      627.42
 TTTTTTTTTTTTTTTTTTTTTTTTTTTTTT FDIK        TELAPSE      627.48 TCPU      627.43
 INSULATING STATE
 TOP OF VALENCE BANDS -    BAND     10; K    1; EIG -3.3028403E-01 AU
 BOTTOM OF VIRTUAL BANDS - BAND     11; K    1; EIG -8.7639965E-02 AU
 DIRECT ENERGY BAND GAP:   6.6027 eV
 TTTTTTTTTTTTTTTTTTTTTTTTTTTTTT PDIG        TELAPSE      627.50 TCPU      627.45
 TTTTTTTTTTTTTTTTTTTTTTTTTTTTTT MOQGAD      TELAPSE      627.51 TCPU      627.46
 TTTTTTTTTTTTTTTTTTTTTTTTTTTTTT SHELLXN     TELAPSE      629.43 TCPU      629.38
 TTTTTTTTTTTTTTTTTTTTTTTTTTTTTT MONMO3      TELAPSE      629.45 TCPU      629.40
 NUMERICALLY INTEGRATED DENSITY     20.0000532597
 TTTTTTTTTTTTTTTTTTTTTTTTTTTTTT NUMDFT      TELAPSE      629.73 TCPU      629.68
 CYC   1 ETOT(AU) -2.750725758361E+02 DETOT  9.74E-02 tst  0.00E+00 PX  1.00E+00
 TTTTTTTTTTTTTTTTTTTTTTTTTTTTTT DIIS        TELAPSE      629.74 TCPU      629.69
 DIIS TEST: 0.43801E+00 AT SCF   CYCLE   1 - MIX   30 %
 TTTTTTTTTTTTTTTTTTTTTTTTTTTTTT FDIK        TELAPSE      629.74 TCPU      629.69
 INSULATING STATE
 TOP OF VALENCE BANDS -    BAND     10; K    1; EIG -5.1080874E-02 AU
 BOTTOM OF VIRTUAL BANDS - BAND     11; K    1; EIG  6.2325118E-02 AU
 DIRECT ENERGY BAND GAP:   3.0859 eV
 TTTTTTTTTTTTTTTTTTTTTTTTTTTTTT PDIG        TELAPSE      629.77 TCPU      629.71
 TTTTTTTTTTTTTTTTTTTTTTTTTTTTTT MOQGAD      TELAPSE      629.78 TCPU      629.73
 TTTTTTTTTTTTTTTTTTTTTTTTTTTTTT SHELLXN     TELAPSE      631.70 TCPU      631.65
 TTTTTTTTTTTTTTTTTTTTTTTTTTTTTT MONMO3      TELAPSE      631.71 TCPU      631.66
 NUMERICALLY INTEGRATED DENSITY     20.0000702142
 TTTTTTTTTTTTTTTTTTTTTTTTTTTTTT NUMDFT      TELAPSE      632.00 TCPU      631.95
 CYC   2 ETOT(AU) -2.750708694241E+02 DETOT  1.71E-03 tst  2.55E-02 PX  3.72E-01
 TTTTTTTTTTTTTTTTTTTTTTTTTTTTTT DIIS        TELAPSE      632.00 TCPU      631.95
 DIIS TEST: 0.50382E+00 AT SCF   CYCLE   2 - DIIS ACTIVE - HISTORY:     2 CYCLES
 TTTTTTTTTTTTTTTTTTTTTTTTTTTTTT FDIK        TELAPSE      632.01 TCPU      631.96
 INSULATING STATE
 TOP OF VALENCE BANDS -    BAND     10; K    1; EIG -1.4536046E-01 AU
 BOTTOM OF VIRTUAL BANDS - BAND     11; K    1; EIG  2.3009035E-02 AU
 DIRECT ENERGY BAND GAP:   4.5816 eV
 TTTTTTTTTTTTTTTTTTTTTTTTTTTTTT PDIG        TELAPSE      632.03 TCPU      631.98
 TTTTTTTTTTTTTTTTTTTTTTTTTTTTTT MOQGAD      TELAPSE      632.05 TCPU      631.99
 TTTTTTTTTTTTTTTTTTTTTTTTTTTTTT SHELLXN     TELAPSE      633.96 TCPU      633.91
 TTTTTTTTTTTTTTTTTTTTTTTTTTTTTT MONMO3      TELAPSE      633.98 TCPU      633.93
 NUMERICALLY INTEGRATED DENSITY     20.0000623367
 TTTTTTTTTTTTTTTTTTTTTTTTTTTTTT NUMDFT      TELAPSE      634.26 TCPU      634.21
 CYC   3 ETOT(AU) -2.751732601304E+02 DETOT -1.02E-01 tst  4.57E-03 PX  2.17E-01
 TTTTTTTTTTTTTTTTTTTTTTTTTTTTTT DIIS        TELAPSE      634.27 TCPU      634.22
 DIIS TEST: 0.14210E-02 AT SCF   CYCLE   3 - DIIS ACTIVE - HISTORY:     3 CYCLES
 TTTTTTTTTTTTTTTTTTTTTTTTTTTTTT FDIK        TELAPSE      634.27 TCPU      634.22
 INSULATING STATE
 TOP OF VALENCE BANDS -    BAND     10; K    1; EIG -1.5084651E-01 AU
 BOTTOM OF VIRTUAL BANDS - BAND     11; K    1; EIG  1.9487286E-02 AU
 DIRECT ENERGY BAND GAP:   4.6350 eV
 TTTTTTTTTTTTTTTTTTTTTTTTTTTTTT PDIG        TELAPSE      634.30 TCPU      634.24
 TTTTTTTTTTTTTTTTTTTTTTTTTTTTTT MOQGAD      TELAPSE      634.31 TCPU      634.26
 TTTTTTTTTTTTTTTTTTTTTTTTTTTTTT SHELLXN     TELAPSE      636.23 TCPU      636.18
 TTTTTTTTTTTTTTTTTTTTTTTTTTTTTT MONMO3      TELAPSE      636.25 TCPU      636.19
 NUMERICALLY INTEGRATED DENSITY     20.0000619285
 TTTTTTTTTTTTTTTTTTTTTTTTTTTTTT NUMDFT      TELAPSE      636.53 TCPU      636.48
 CYC   4 ETOT(AU) -2.751735499690E+02 DETOT -2.90E-04 tst  8.96E-06 PX  6.55E-03
 TTTTTTTTTTTTTTTTTTTTTTTTTTTTTT DIIS        TELAPSE      636.54 TCPU      636.48
 DIIS TEST: 0.49701E-04 AT SCF   CYCLE   4 - DIIS ACTIVE - HISTORY:     4 CYCLES
 TTTTTTTTTTTTTTTTTTTTTTTTTTTTTT FDIK        TELAPSE      636.54 TCPU      636.49
 INSULATING STATE
 TOP OF VALENCE BANDS -    BAND     10; K    1; EIG -1.5260831E-01 AU
 BOTTOM OF VIRTUAL BANDS - BAND     11; K    1; EIG  1.8172792E-02 AU
 DIRECT ENERGY BAND GAP:   4.6472 eV
 TTTTTTTTTTTTTTTTTTTTTTTTTTTTTT PDIG        TELAPSE      636.56 TCPU      636.51
 TTTTTTTTTTTTTTTTTTTTTTTTTTTTTT MOQGAD      TELAPSE      636.58 TCPU      636.52
 TTTTTTTTTTTTTTTTTTTTTTTTTTTTTT SHELLXN     TELAPSE      638.50 TCPU      638.44
 TTTTTTTTTTTTTTTTTTTTTTTTTTTTTT MONMO3      TELAPSE      638.51 TCPU      638.46
 NUMERICALLY INTEGRATED DENSITY     20.0000618161
 TTTTTTTTTTTTTTTTTTTTTTTTTTTTTT NUMDFT      TELAPSE      638.80 TCPU      638.74
 CYC   5 ETOT(AU) -2.751735599071E+02 DETOT -9.94E-06 tst  5.02E-07 PX  1.68E-03
 TTTTTTTTTTTTTTTTTTTTTTTTTTTTTT DIIS        TELAPSE      638.80 TCPU      638.75
 DIIS TEST: 0.39410E-06 AT SCF   CYCLE   5 - DIIS ACTIVE - HISTORY:     5 CYCLES
 TTTTTTTTTTTTTTTTTTTTTTTTTTTTTT FDIK        TELAPSE      638.81 TCPU      638.75
 INSULATING STATE
 TOP OF VALENCE BANDS -    BAND     10; K    1; EIG -1.5254830E-01 AU
 BOTTOM OF VIRTUAL BANDS - BAND     11; K    1; EIG  1.8208838E-02 AU
 DIRECT ENERGY BAND GAP:   4.6465 eV
 TTTTTTTTTTTTTTTTTTTTTTTTTTTTTT PDIG        TELAPSE      638.83 TCPU      638.78
 TTTTTTTTTTTTTTTTTTTTTTTTTTTTTT MOQGAD      TELAPSE      638.84 TCPU      638.79
 TTTTTTTTTTTTTTTTTTTTTTTTTTTTTT SHELLXN     TELAPSE      640.76 TCPU      640.71
 TTTTTTTTTTTTTTTTTTTTTTTTTTTTTT MONMO3      TELAPSE      640.78 TCPU      640.73
 NUMERICALLY INTEGRATED DENSITY     20.0000618273
 TTTTTTTTTTTTTTTTTTTTTTTTTTTTTT NUMDFT      TELAPSE      641.06 TCPU      641.01
 CYC   6 ETOT(AU) -2.751735599830E+02 DETOT -7.58E-08 tst  3.55E-09 PX  1.53E-04
 TTTTTTTTTTTTTTTTTTTTTTTTTTTTTT DIIS        TELAPSE      641.07 TCPU      641.02
 DIIS TEST: 0.82815E-09 AT SCF   CYCLE   6 - DIIS ACTIVE - HISTORY:     6 CYCLES
 TTTTTTTTTTTTTTTTTTTTTTTTTTTTTT FDIK        TELAPSE      641.07 TCPU      641.02
 INSULATING STATE
 TOP OF VALENCE BANDS -    BAND     10; K    1; EIG -1.5255653E-01 AU
 BOTTOM OF VIRTUAL BANDS - BAND     11; K    1; EIG  1.8202909E-02 AU
 DIRECT ENERGY BAND GAP:   4.6466 eV
 TTTTTTTTTTTTTTTTTTTTTTTTTTTTTT PDIG        TELAPSE      641.10 TCPU      641.04
 TTTTTTTTTTTTTTTTTTTTTTTTTTTTTT MOQGAD      TELAPSE      641.11 TCPU      641.06
 TTTTTTTTTTTTTTTTTTTTTTTTTTTTTT SHELLXN     TELAPSE      643.03 TCPU      642.98
 TTTTTTTTTTTTTTTTTTTTTTTTTTTTTT MONMO3      TELAPSE      643.05 TCPU      642.99
 NUMERICALLY INTEGRATED DENSITY     20.0000618269
 TTTTTTTTTTTTTTTTTTTTTTTTTTTTTT NUMDFT      TELAPSE      643.33 TCPU      643.28
 CYC   7 ETOT(AU) -2.751735599829E+02 DETOT  7.07E-11 tst  9.29E-12 PX  6.06E-06
 TTTTTTTTTTTTTTTTTTTTTTTTTTTTTT DIIS        TELAPSE      643.34 TCPU      643.28
 DIIS TEST: 0.13375E-12 AT SCF   CYCLE   7 - DIIS ACTIVE - HISTORY:     7 CYCLES
 TTTTTTTTTTTTTTTTTTTTTTTTTTTTTT FDIK        TELAPSE      643.34 TCPU      643.29
 INSULATING STATE
 TOP OF VALENCE BANDS -    BAND     10; K    1; EIG -1.5255660E-01 AU
 BOTTOM OF VIRTUAL BANDS - BAND     11; K    1; EIG  1.8202858E-02 AU
 DIRECT ENERGY BAND GAP:   4.6466 eV
 TTTTTTTTTTTTTTTTTTTTTTTTTTTTTT PDIG        TELAPSE      643.36 TCPU      643.31
 TTTTTTTTTTTTTTTTTTTTTTTTTTTTTT MOQGAD      TELAPSE      643.38 TCPU      643.32
 TTTTTTTTTTTTTTTTTTTTTTTTTTTTTT SHELLXN     TELAPSE      645.29 TCPU      645.24
 ::: PSEUDO TOTAL   ENERGY                        -2.5013856262654E+02
 ::: VIRIAL COEFFICIENT                            1.0443051991934E+00
 TTTTTTTTTTTTTTTTTTTTTTTTTTTTTT MONMO3      TELAPSE      645.31 TCPU      645.25
 NUMERICALLY INTEGRATED DENSITY     20.0000618269
 EXCHANGE ENERGY: -0.243032598263E+02  CORRELATION ENERGY: -0.731737530027E+00
 TTTTTTTTTTTTTTTTTTTTTTTTTTTTTT NUMDFT      TELAPSE      645.59 TCPU      645.54
 CYC   8 ETOT(AU) -2.751735599829E+02 DETOT  2.27E-13 tst  5.73E-15 PX  6.06E-06

 == SCF ENDED - CONVERGENCE ON ENERGY      E(AU) -2.7517355998290E+02 CYCLES   8


 ENERGY EXPRESSION=HARTREE+FOCK EXCH*0.00000+(PBE        EXCH)*1.00000+PBE        CORR


 TOTAL ENERGY(DFT)(AU)(  8) -2.7517355998290E+02 DE 2.3E-13 tester 5.7E-15
 TTTTTTTTTTTTTTTTTTTTTTTTTTTTTT EDFT        TELAPSE      645.59 TCPU      645.54

 *******************************************************************************
 *                             FORCE CALCULATION                               *
 *******************************************************************************

 TTTTTTTTTTTTTTTTTTTTTTTTTTTTTT NUMDFG      TELAPSE      648.84 TCPU      648.79
 INFORMATION **** EXCPOG **** EXCH. BIPO BUFFER LENGTH (WORDS) =           0
 INFORMATION **** GENPOG **** BIPO BUFFER LENGTH (WORDS) =      238200
 TTTTTTTTTTTTTTTTTTTTTTTTTTTTTT SHELXG      TELAPSE      654.24 TCPU      654.19

 CARTESIAN FORCES IN HARTREE/BOHR (ANALYTICAL)
   ATOM                     X                   Y                   Z
   1  12             2.730487608348E-15  1.171438801450E-15 -3.899956171705E-16
   2   8            -2.744365396156E-15 -1.165656389864E-15  3.899956171705E-16

 RESULTANT FORCE    -1.387778780781E-17  5.782411586589E-18  0.000000000000E+00

 THERE ARE NO SYMMETRY ALLOWED DIRECTIONS
 TTTTTTTTTTTTTTTTTTTTTTTTTTTTTT TOTGRA      TELAPSE      654.33 TCPU      654.27

 HHHHHHHHHHHHHHHHHHHHHHHHHHHHHHHHHHHHHHHHHHHHHHHHHHHHHHHHHHHHHHHHHHHHHHHHHHHHHHH
                   FORCE CONSTANT MATRIX - NUMERICAL ESTIMATE
 HHHHHHHHHHHHHHHHHHHHHHHHHHHHHHHHHHHHHHHHHHHHHHHHHHHHHHHHHHHHHHHHHHHHHHHHHHHHHHH
 MAX ABS(DGRAD): MAXIMUM ABSOLUTE GRADIENT DIFFERENCE WITH RESPECT TO
                 THE CENTRAL POINT
 DE:             ENERGY DIFFERENCE WITH RESPECT TO THE CENTRAL POINT
                 (DE IS EXPECTED TO BE POSITIVE FOR ALL DISPLACEMENTS)

   ATOM      MAX ABS(DGRAD)       TOTAL ENERGY (AU)  N.CYC      DE       SYM
    CENTRAL POINT             -2.751735599829E+02     8     0.0000E+00    48
    2 O  DX   2.9289E-04      -2.751735591513E+02     4     8.3165E-07     8
    2 O  DY                   GENERATED FROM A PREVIOUS LINE
    2 O  DZ                   GENERATED FROM A PREVIOUS LINE

 GCALCO - MAX INDICES DIRECT LATTICE VECTOR    14    14    14
 NO.OF VECTORS CREATED 6999 STARS  105 RMAX    60.36183 BOHR

 CAPPA:IS1  8;IS2  8;IS3  8; K PTS MONK NET  29; SYMMOPS:K SPACE  48;G SPACE  48

 TTTTTTTTTTTTTTTTTTTTTTTTTTTTTT gordsh1     TELAPSE      706.94 TCPU      706.89

 MATRIX SIZE: P(G)   23983, F(G)   12421, P(G) IRR    1358, F(G) IRR    1358
 MAX G-VECTOR INDEX FOR 1- AND 2-ELECTRON INTEGRALS 247

 TTTTTTTTTTTTTTTTTTTTTTTTTTTTTT INPUT       TELAPSE      706.94 TCPU      706.89

 THERE ARE NO SYMMETRY ALLOWED DIRECTIONS
 TTTTTTTTTTTTTTTTTTTTTTTTTTTTTT SYMM        TELAPSE      706.95 TCPU      706.89
 TTTTTTTTTTTTTTTTTTTTTTTTTTTTTT INT_SCREEN  TELAPSE      706.95 TCPU      706.89

 ATOMIC BORN CHARGE TENSOR (UNITS OF e, ELECTRON CHARGE).
 DYNAMIC CHARGE = 1/3 * TRACE .

 ATOM   1 MG DYNAMIC CHARGE     1.985248

              1           2           3
   1     1.9852E+00  1.3786E-25  1.3786E-25
   2     1.3786E-25  1.9852E+00  1.3786E-25
   3     1.3786E-25  1.3786E-25  1.9852E+00

 ATOM   2 O  DYNAMIC CHARGE    -1.985248

              1           2           3
   1    -1.9852E+00 -1.3786E-25 -1.3786E-25
   2    -1.3786E-25 -1.9852E+00 -1.3786E-25
   3    -1.3786E-25 -1.3786E-25 -1.9852E+00

 +++ SYMMETRY ADAPTION OF VIBRATIONAL MODES +++

 SYMMETRY INFORMATION:
 K-LITTLE GROUP: CLASS TABLE, CHARACTER TABLE.
 IRREP-(DIMENSION, NO. IRREDUCIBLE SETS)
 [WARNINGS: (1) ONLY ACTIVE IRREPS ARE GENERATED AND LISTED.
            (2) ONLY RELEVANT CLASSES ARE CONSIDERED IN THE CHARACTER TABLE
            (3) SYMBOLS MAY NOT FULLY COINCIDE WITH THOSE FROM TEXT BOOKS.]

 (P, D, RP, RD, STAND FOR PAIRING, DOUBLING, REAL PAIRING AND REAL DOUBLING 
 OF THE IRREPS (SEE MANUAL))

 CLASS  | GROUP OPERATORS (SEE SYMMOPS KEYWORD)
 --------------------------------------------------------------------
 C2     |   2;   3;   4;
 C3     |   5;  11;   7;   9;   6;  12;  10;   8;
 C2'    |  13;  14;  17;  18;  23;  24;
 C4     |  15;  16;  19;  20;  21;  22;
 I      |  25;
 SGH    |  26;  27;  28;
 S6     |  29;  35;  31;  33;  30;  36;  34;  32;
 SGD    |  37;  38;  41;  42;  47;  48;
 S4     |  39;  40;  43;  44;  45;  46;

 IRREP/CLA      E     C2     C3    C2'     C4      I    SGH     S6    SGD     S4
 -------------------------------------------------------------------------------
  MULTIP |      1      3      8      6      6      1      3      8      6      6
 -------------------------------------------------------------------------------
    Fu   |   3.00  -1.00   0.00  -1.00   1.00  -3.00   1.00   0.00   1.00  -1.00
 

 Fu -(3,   2);

 BORN CHARGE VECTOR IN THE BASIS OF NORMAL MODES (UNITS OF e*M_E**(-1/2) ).
 e AND M_E ARE UNITS OF ELECTRON CHARGE AND MASS, RESPECTIVELY.

 MODE         X              Y              Z
   1    0.00000E+00    0.00000E+00    0.00000E+00
   2    0.00000E+00    0.00000E+00    0.00000E+00
   3    0.00000E+00    0.00000E+00    0.00000E+00
   4   -0.10424E-26   -0.15010E-01   -0.10424E-26
   5   -0.15010E-01   -0.10424E-26   -0.10424E-26
   6   -0.10424E-26   -0.10424E-26   -0.15010E-01

 HHHHHHHHHHHHHHHHHHHHHHHHHHHHHHHHHHHHHHHHHHHHHHHHHHHHHHHHHHHHHHHHHHHHHHHHHHHHHH
 VIBRATIONAL CONTRIBUTIONS TO THE STATIC DIELECTRIC TENSOR (OSCILLATOR
 STRENGTHS) ARE PURE NUMBERS. THEY ARE COMPUTED FOR EACH nth MODE AS:

   f_(n,ij) = 1 / (4 * pi * eps0) * 4 * pi / V * Z_(n,i) * Z_(n,j) / nu_n**2

 WHERE:
  1/(4*pi*eps0)  1 A.U. [M*L**3*T**(-4)*C**(-2)]
  V              CELL VOLUME (BOHR**3) [L**3]
  Z_(n,i)        ith COMPONENT OF BORN CHARGE VECTOR IN THE BASIS
                 OF NORMAL MODES ( e*M_E**(-1/2) ) [C*T*M**(-1/2)]
  nu_n           FREQUENCY (HARTREE) [T**(-1)]
  e, M_E         UNITS OF ELECTRON CHARGE AND MASS, RESPECTIVELY
  M, L, T, C     MASS, LENGTH, TIME, CURRENT, RESPECTIVELY

 HHHHHHHHHHHHHHHHHHHHHHHHHHHHHHHHHHHHHHHHHHHHHHHHHHHHHHHHHHHHHHHHHHHHHHHHHHHHHH

 MODE      CARTESIAN AXES SYSTEM

   4       0.00000    0.00000    0.00000
           0.00000    7.30659    0.00000
           0.00000    0.00000    0.00000

   5       7.30659    0.00000    0.00000
           0.00000    0.00000    0.00000
           0.00000    0.00000    0.00000

   6       0.00000    0.00000    0.00000
           0.00000    0.00000    0.00000
           0.00000    0.00000    7.30659

 SUM TENSOR OF THE VIBRATIONAL CONTRIBUTIONS TO THE STATIC DIELECTRIC     TENSOR

           7.30659    0.00000    0.00000
           0.00000    7.30659    0.00000
           0.00000    0.00000    7.30659

 INTEGRATED IR INTENSITIES, IN UNITS OF KM/MOL, ARE COMPUTED UNDER THE
 HYPOTHESIS OF ISOTROPIC RESPONSE (I.E. POWDER SAMPLE):

   INTENS_n = 1 / (4 * pi * eps0) * pi * N_AV / 3 / c**2 *
                             * d_n * ( Z_(n,x)**2 + Z_(n,y)**2 + Z_(n,z)**2 )
            = 0.17770712E+07 * d_n * ( Z_(n,x)**2 + Z_(n,y)**2 + Z_(n,z)**2 )

 WHERE:
  1/(4*pi*eps0)  1 A.U. [M*L**3*T**(-4)*C**(-2)]
  N_AV           AVOGADRO'S NUMBER [QM**(-1)]
  c              SPEED OF LIGHT [L*T**(-1)]
  d_n            DEGENERACY OF THE MODE
  Z_(n,x)        xth COMPONENT OF BORN CHARGE VECTOR IN THE BASIS
                 OF NORMAL MODES ( e*M_E**(-1/2) ) [C*T*M**(-1/2)]
  M,L,T,C,QM     MASS, LENGTH, TIME, CURRENT, QUANTITY OF MATTER, RESPECTIVELY

 HHHHHHHHHHHHHHHHHHHHHHHHHHHHHHHHHHHHHHHHHHHHHHHHHHHHHHHHHHHHHHHHHHHHHHHHHHHHHH
 EIGENVALUES (EIGV) OF THE MASS WEIGHTED HESSIAN MATRIX AND HARMONIC TRANSVERSE
 OPTICAL (TO) FREQUENCIES. IRREP LABELS REFER TO SYMMETRY REPRESENTATION
 ANALYSIS; A AND I INDICATE WHETHER THE MODE IS ACTIVE OR INACTIVE,
 RESPECTIVELY, FOR IR AND RAMAN; INTEGRATED IR INTENSITIES IN BRACKETS.

 CONVERSION FACTORS FOR FREQUENCIES:
      1 CM**(-1) =   0.4556335E-05 HARTREE
      1 THZ      =   0.3335641E+02 CM**(-1)

 HHHHHHHHHHHHHHHHHHHHHHHHHHHHHHHHHHHHHHHHHHHHHHHHHHHHHHHHHHHHHHHHHHHHHHHHHHHHHH

    MODES         EIGV          FREQUENCIES     IRREP  IR   INTENS    RAMAN
             (HARTREE**2)   (CM**-1)     (THZ)             (KM/MOL)
    1-   3    0.4758E-21      0.0000    0.0000  (Fu )   A (     0.00)   I
    4-   6    0.2954E-05    377.1845   11.3077  (Fu )   A (  1201.20)   I

 NORMAL MODES NORMALIZED TO CLASSICAL AMPLITUDES (IN BOHR)

 FREQ(CM**-1)      0.00      0.00      0.00    377.18    377.18    377.18

 AT.   1 MG X     0.1582    0.0000    0.0000    0.0000   -0.0730    0.0000
            Y     0.0000    0.1582    0.0000   -0.0730    0.0000    0.0000
            Z     0.0000    0.0000    0.1582    0.0000    0.0000   -0.0730
 AT.   2 O  X     0.1582    0.0000    0.0000    0.0000    0.1094    0.0000
            Y     0.0000    0.1582    0.0000    0.1094    0.0000    0.0000
            Z     0.0000    0.0000    0.1582    0.0000    0.0000    0.1094

 *******************************************************************************

 VIBRATIONAL TEMPERATURES (K) [MODE NUMBER;IRREP]

 TO MODES
   542.7 [   4;Fu ]   542.7 [   5;Fu ]   542.7 [   6;Fu ]

 *******************************************************************************

 HARMONIC VIBRATIONAL CONTRIBUTIONS TO THERMODYNAMIC FUNCTIONS AT GIVEN
 TEMPERATURE AND PRESSURE:

 (EL = ELECTRONIC ENERGY
  E0 = ZERO-POINT ENERGY
  ET = THERMAL CONTRIBUTION TO THE VIBRATIONAL ENERGY
  PV = PRESSURE * VOLUME
  TS = TEMPERATURE * ENTROPY)

                          AU/CELL             EV/CELL                 KJ/MOL
 EL            :    -275.173559982898   -7487.853242237531     -722468.07992088
 E0            :       0.002577868391       0.070147365146           6.76819251


 *******************************************************************************

 THERMODYNAMIC FUNCTIONS WITH VIBRATIONAL CONTRIBUTIONS

 AT (T =  298.15 K, P =   0.10132500E+00 MPA):

                          AU/CELL             EV/CELL                 KJ/MOL
 ET            :       0.000996680661       0.027121059587           2.61678471
 PV            :       0.000000451860       0.000012295746           0.00118636
 TS            :       0.001497292930       0.040743411975           3.93114203
 ET+PV-TS      :      -0.000500160409      -0.013610056642          -1.31317097
 EL+E0+ET+PV-TS:    -275.171482274915   -7487.796704929026     -722462.62489934

 OTHER THERMODYNAMIC FUNCTIONS:

                      mHARTREE/(CELL*K)     mEV/(CELL*K)              J/(MOL*K)
 ENTROPY       :       0.005021945094       0.136654073368          13.18511499
 HEAT CAPACITY :       0.007260862536       0.197578114290          19.06339190

 *******************************************************************************
 TTTTTTTTTTTTTTTTTTTTTTTTTTTTTT END         TELAPSE      706.95 TCPU      706.90
 EEEEEEEEEE TERMINATION  DATE 12 09 2024 TIME 12:38:11.5
NODE    0 CPU TIME =       706.895
    TOTAL CPU TIME =       706.895
Thu 12 Sep 2024 12:38:11 PM CEST
total 376272
-rw-r--r-- 1 erba users       300 Sep 12 12:38 BORN.DAT
-rw-r--r-- 1 erba users         0 Sep 12 12:26 dffit3.dat
-rw-r--r-- 1 erba users      3472 Sep 12 12:37 diis_err1.pe0
-rw-r--r-- 1 erba users      5208 Sep 12 12:37 diis_err2.pe0
-rw-r--r-- 1 erba users    120128 Sep 12 12:37 diis_Fg
-rw-r--r-- 1 erba users         0 Sep 12 12:26 diis_Sk.pe0
-rw-r--r-- 1 erba users        40 Sep 12 12:38 fort.10.pe0
-rw-r--r-- 1 erba users     30032 Sep 12 12:37 fort.11.pe0
-rw-r--r-- 1 erba users      8448 Sep 12 12:37 fort.12
-rw-r--r-- 1 erba users    191872 Sep 12 12:37 fort.13
-rw-r--r-- 1 erba users   3446816 Sep 12 12:26 fort.14.pe0
-rw-r--r-- 1 erba users   3446816 Sep 12 12:26 fort.15.pe0
-rw-r--r-- 1 erba users         0 Sep 12 12:26 fort.18.pe0
-rw-r--r-- 1 erba users       168 Sep 12 12:38 fort.19.pe0
-rw-r--r-- 1 erba users         0 Sep 12 12:26 fort.1.pe0
-rw-r--r-- 1 erba users    126904 Sep 12 12:37 fort.20
-rw-r--r-- 1 erba users     20548 Sep 12 12:37 fort.21
-rw-r--r-- 1 erba users   3446816 Sep 12 12:26 fort.22.pe0
-rw-r--r-- 1 erba users       243 Sep 12 12:28 fort.24
-rw-r--r-- 1 erba users   6893632 Sep 12 12:27 fort.26.pe0
-rw-r--r-- 1 erba users    780320 Sep 12 12:27 fort.27.pe0
-rw-r--r-- 1 erba users    780320 Sep 12 12:27 fort.28.pe0
-rw-r--r-- 1 erba users    780320 Sep 12 12:28 fort.29.pe0
-rw-r--r-- 1 erba users   1198808 Sep 12 12:28 fort.2.pe0
-rw-r--r-- 1 erba users    317072 Sep 12 12:28 fort.31
-rw-r--r-- 1 erba users   2340960 Sep 12 12:26 fort.36.pe0
-rw-r--r-- 1 erba users   2340960 Sep 12 12:26 fort.37.pe0
-rw-r--r-- 1 erba users         0 Sep 12 12:26 fort.38.pe0
-rw-r--r-- 1 erba users   2340960 Sep 12 12:26 fort.39.pe0
-rw-r--r-- 1 erba users     99376 Sep 12 12:37 fort.3.pe0
-rw-r--r-- 1 erba users         0 Sep 12 12:26 fort.40.pe0
-rw-r--r-- 1 erba users   3446816 Sep 12 12:26 fort.41.pe0
-rw-r--r-- 1 erba users   3446816 Sep 12 12:26 fort.42.pe0
-rw-r--r-- 1 erba users   3446816 Sep 12 12:26 fort.43.pe0
-rw-r--r-- 1 erba users    175452 Sep 12 12:26 fort.4.pe0
-rw-r--r-- 1 erba users     44592 Sep 12 12:38 fort.61.pe0
-rw-r--r-- 1 erba users     32008 Sep 12 12:38 fort.62.pe0
-rw-r--r-- 1 erba users   3446816 Sep 12 12:27 fort.63.pe0
-rw-r--r-- 1 erba users   2340960 Sep 12 12:27 fort.67.pe0
-rw-r--r-- 1 erba users   2340960 Sep 12 12:27 fort.69.pe0
-rw-r--r-- 1 erba users   2340960 Sep 12 12:28 fort.70.pe0
-rw-r--r-- 1 erba users   3446816 Sep 12 12:26 fort.73.pe0
-rw-r--r-- 1 erba users   3446816 Sep 12 12:26 fort.74.pe0
-rw-r--r-- 1 erba users   3446816 Sep 12 12:26 fort.75.pe0
-rw-r--r-- 1 erba users     34536 Sep 12 12:26 fort.76.pe0
-rw-r--r-- 1 erba users   3446816 Sep 12 12:27 fort.77.pe0
-rw-r--r-- 1 erba users   2394648 Sep 12 12:27 fort.80.pe0
-rw-r--r-- 1 erba users   3590488 Sep 12 12:28 fort.81.pe0
-rw-r--r-- 1 erba users   3446816 Sep 12 12:27 fort.82.pe0
-rw-r--r-- 1 erba users   3446816 Sep 12 12:27 fort.83.pe0
-rw-r--r-- 1 erba users   3446816 Sep 12 12:28 fort.84.pe0
-rw-r--r-- 1 erba users      8723 Sep 12 12:36 fort.85
-rw-r--r-- 1 erba users    191872 Sep 12 12:28 fort.89
-rw-r--r-- 1 erba users    767464 Sep 12 12:38 fort.8.pe0
-rw-r--r-- 1 erba users    126904 Sep 12 12:37 fort.9
-rw-r--r-- 1 erba users    191872 Sep 12 12:27 fort.90
-rw-r--r-- 1 erba users   3446816 Sep 12 12:28 fort.92.pe0
-rw-r--r-- 1 erba users     33048 Sep 12 12:37 fort.95.pe0
-rw-r--r-- 1 erba users    323018 Sep 12 12:26 fort.98
-rw-r--r-- 1 erba users    100692 Sep 12 12:38 FREQINFO.DAT
-rw-r--r-- 1 erba users       765 Sep 12 12:38 HESSFREQ.DAT
-rw-r--r-- 1 erba users       247 Sep 12 12:26 INPUT
-rw-r--r-- 1 erba users         0 Sep 12 12:37 MULLIKEN.DAT
-rwxr-xr-x 1 erba users 300056536 Sep 12 12:26 Pcrystal-475125
lrwxrwxrwx 1 erba users        46 Sep 12 12:26 SCFOUT.LOG -> /home/erba/Mitoli/MSSC2024/HA/MgO_IR_CPHF.out2
-rw-r--r-- 1 erba users       294 Sep 12 12:36 TENS_IR.DAT
