
         
 *******************************************************************************
 *                                                                             *
 *                               CRYSTAL23                                     *
 *                      public : 1.0.1 - October 2022                          *
 *                       HTTP://WWW.CRYSTAL.UNITO.IT                           *
 *                                                                             *
 *                              MAIN AUTHORS                                   *
 *                                                                             *
 *  R. DOVESI(1,11), V.R. SAUNDERS(2), C. ROETTI(1,11), R. ORLANDO(1,11),      *
 *  C.M. ZICOVICH-WILSON(1,3), F. PASCALE(4), B. CIVALLERI(1,11),              *
 *  K. DOLL(5), N.M. HARRISON(6), I.J. BUSH(7), Ph. D'ARCO(8),                 *
 *  M. LLUNELL(9), M. CAUSA'(10), Y. NOEL(8), L. MASCHIO(1,11), A. ERBA(1,11)  *
 *  M. RE'RAT(14), S. CASASSA(1,11), B.G. SEARLE(2), J.K. DESMARAIS(1)         *
 *                                                                             *
 *        CONTRIBUTIONS TO THE CODE HAVE ALSO BEEN GIVEN BY                    *
 *                                                                             *
 *  M. FERRABONE(1,11), M. DE LA PIERRE(1,11), M. FERRERO(1,11),               *
 *  J. BAIMA(1,11), E. ALBANESE(1,11), M.F. PEINTINGER(12), R. BAST(13),       *
 *  B. KIRTMAN(15), V. LACIVITA(1,11), R. DEMICHELIS(1,16)                     *
 *  G. BRANDEBURG(17), S. SALUSTRO(1,11), G. SANSONE(1,11)                     *
 *  M.T. RUGGIERO(18), L.E. DAGA(1), L. DONA'(1), A. COSSARD(1)                *
 *                                                                             *
 * (1) THEORETICAL CHEMISTRY GROUP - UNIVERSITA' DI TORINO - TORINO (ITALY)    *
 * (2) SCIENTIFIC COMPUTING DEPARTMENT - STFC DARESBURY (UK)                   *
 * (3) UNIVERSIDAD AUTONOMA DEL ESTADO DE MORELOS - CUERNAVACA (MEXICO)        *
 * (4) UNIVERSITE' DE LORRAINE - NANCY (FRANCE)                                *
 * (5) UNIVERSITAET STUTTGART- STUTTGART (GERMANY)                             *
 * (6) IMPERIAL COLLEGE - LONDON (UK)                                          *
 * (7) SCIENTIFIC COMPUTING DEPARTMENT - STFC RAL (UK)                         *
 * (8) UPMC - SORBONNE UNIVERSITES - PARIS (FRANCE)                            *
 * (9) UNIVERSIDAD DE BARCELONA - BARCELONA (SPAIN)                            *
 *(10) UNIVERSITA' DI NAPOLI "FEDERICO II" - NAPOLI (ITALY)                    *
 *(11) NIS - NANOSTRUCTURED INTERFACES AND SURFACES - TORINO (ITALY)           *
 *(12) MPI FUER CHEMISCHE ENERGIEKONVERSION - MUELHEIM AN DER RUHR (GERMANY)   *
 *(13) UNIVERSITY OF TROMSO - TROMSO (NORWAY)                                  *
 *(14) UNIVERSITE' DE PAU ET DES PAYS DE L'ADOUR - PAU (FRANCE)                *
 *(15) UNIVERSITY OF CALIFORNIA SANTA BARBARA - SANTA BARBARA (USA)            *
 *(16) CURTIN UNIVERSITY - PERTH (AUSTRALIA)                                   *
 *(17) UNIVERSITY COLLEGE LONDON - LONDON (UK)                                 *
 *(18) UNIVERSITY OF VERMONT - BURLINGTON (USA)                                *
 *                                                                             *
 *******************************************************************************
 EEEEEEEEEE STARTING  DATE 16 09 2024 TIME 12:03:23.2
 UREA BULK BASE 6-21 + POLARIZATION                                              

 CRYSTAL CALCULATION
 (INPUT ACCORDING TO THE INTERNATIONAL TABLES FOR X-RAY CRYSTALLOGRAPHY)
 CRYSTAL FAMILY                       :  TETRAGONAL  
 CRYSTAL CLASS  (GROTH - 1921)        :  TETRAGONAL SCALENOHEDRAL             

 SPACE GROUP (NONCENTROSYMMETRIC)     :  P -4 21 M       

 LATTICE PARAMETERS  (ANGSTROMS AND DEGREES) - CONVENTIONAL CELL
        A           B           C        ALPHA        BETA       GAMMA
     5.56500     5.56500     4.68400    90.00000    90.00000    90.00000


 NUMBER OF IRREDUCIBLE ATOMS IN THE CONVENTIONAL CELL:    5

 INPUT COORDINATES

 ATOM AT. N.              COORDINATES
   1   6     0.000000000000E+00  5.000000000000E-01  3.260000000000E-01
   2   8     0.000000000000E+00  5.000000000000E-01  5.953000000000E-01
   3   7     1.459000000000E-01  6.459000000000E-01  1.766000000000E-01
   4   1     2.575000000000E-01  7.575000000000E-01  2.827000000000E-01
   5   1     1.441000000000E-01  6.441000000000E-01 -3.800000000000E-02

 *******************************************************************************

 << INFORMATION >>: FROM NOW ON, ALL COORDINATES REFER TO THE PRIMITIVE CELL

 *******************************************************************************

 LATTICE PARAMETERS  (ANGSTROMS AND DEGREES) - PRIMITIVE CELL
       A          B          C        ALPHA      BETA     GAMMA        VOLUME
    5.56500    5.56500    4.68400    90.00000  90.00000  90.00000    145.059850

 COORDINATES OF THE EQUIVALENT ATOMS (FRACTIONAL UNITS)

 N. ATOM EQUIV AT. N.          X                  Y                  Z

   1   1   1    6 C     0.00000000000E+00 -5.00000000000E-01  3.26000000000E-01
   2   1   2    6 C    -5.00000000000E-01  0.00000000000E+00 -3.26000000000E-01

   3   2   1    8 O     0.00000000000E+00 -5.00000000000E-01 -4.04700000000E-01
   4   2   2    8 O    -5.00000000000E-01  0.00000000000E+00  4.04700000000E-01

   5   3   1    7 N     1.45900000000E-01 -3.54100000000E-01  1.76600000000E-01
   6   3   2    7 N    -1.45900000000E-01  3.54100000000E-01  1.76600000000E-01
   7   3   3    7 N    -3.54100000000E-01 -1.45900000000E-01 -1.76600000000E-01
   8   3   4    7 N     3.54100000000E-01  1.45900000000E-01 -1.76600000000E-01

   9   4   1    1 H     2.57500000000E-01 -2.42500000000E-01  2.82700000000E-01
  10   4   2    1 H    -2.57500000000E-01  2.42500000000E-01  2.82700000000E-01
  11   4   3    1 H    -2.42500000000E-01 -2.57500000000E-01 -2.82700000000E-01
  12   4   4    1 H     2.42500000000E-01  2.57500000000E-01 -2.82700000000E-01

  13   5   1    1 H     1.44100000000E-01 -3.55900000000E-01 -3.80000000000E-02
  14   5   2    1 H    -1.44100000000E-01  3.55900000000E-01 -3.80000000000E-02
  15   5   3    1 H    -3.55900000000E-01 -1.44100000000E-01  3.80000000000E-02
  16   5   4    1 H     3.55900000000E-01  1.44100000000E-01  3.80000000000E-02

 NUMBER OF SYMMETRY OPERATORS         :    8
 *******************************************************************************
 * GEOMETRY EDITING - INPUT COORDINATES ARE GIVEN IN ANGSTROM         
 *******************************************************************************

 GEOMETRY NOW FULLY CONSISTENT WITH THE GROUP

 COORDINATES IN ANGSTROM

 GCALCO - MAX INDICES DIRECT LATTICE VECTOR    14    14    16
 NO.OF VECTORS CREATED 6999 STARS  525 RMAX    62.34386 BOHR


 *******************************************************************************
 *  SEARCHING THE MOLECULES OF THE CRYSTAL
 *******************************************************************************

 MOLECULAR FRAGMENT N.    1
 REFERENCE ATOM:    1 IN CELL  0 0 0  COORDINATES    0.000  -2.783   1.527
 FRAGMENT COMPOSITION:
  SEQ.  NO. 
  NEW   OLD    CELL   AT. NO.             COORD.(A)
   1     1    0  0  0    6       0.0000   -2.7825    1.5270
   2     3    0  0  1    8       0.0000   -2.7825    2.7884
   3     5    0  0  0    7       0.8119   -1.9706    0.8272
   4     6    0 -1  0    7      -0.8119   -3.5944    0.8272
   5    13    0  0  0    1       0.8019   -1.9806   -0.1780
   6     9    0  0  0    1       1.4330   -1.3495    1.3242
   7    14    0 -1  0    1      -0.8019   -3.5844   -0.1780
   8    10    0 -1  0    1      -1.4330   -4.2155    1.3242

 MOLECULAR FRAGMENT N.    2
 REFERENCE ATOM:    2 IN CELL  0 0 0  COORDINATES   -2.783   0.000  -1.527
 FRAGMENT COMPOSITION:
  SEQ.  NO. 
  NEW   OLD    CELL   AT. NO.             COORD.(A)
   9     2    0  0  0    6      -2.7825    0.0000   -1.5270
  10     4    0  0 -1    8      -2.7825    0.0000   -2.7884
  11     7    0  0  0    7      -1.9706   -0.8119   -0.8272
  12     8   -1  0  0    7      -3.5944    0.8119   -0.8272
  13    15    0  0  0    1      -1.9806   -0.8019    0.1780
  14    11    0  0  0    1      -1.3495   -1.4330   -1.3242
  15    16   -1  0  0    1      -3.5844    0.8019    0.1780
  16    12   -1  0  0    1      -4.2155    1.4330   -1.3242

 *******************************************************************************


 GCALCO - MAX INDICES DIRECT LATTICE VECTOR    14    14    16
 NO.OF VECTORS CREATED 6999 STARS  525 RMAX   117.81283 BOHR

 STAR N.   2 N. OF VECTORS   2 R=  8.8514772E+00

 STAR N.   3 N. OF VECTORS   4 R=  1.0516326E+01

 *******************************************************************************
 ATOM COORDINATES 
 *******************************************************************************
                    ANGSTROM                               FRACTIONAL
  ATOM       X          Y          Z                X          Y          Z
 *******************************************************************************
   1 C   0.0000E+00 -2.7825E+00  1.5270E+00   0.0000E+00 -5.0000E-01  3.2600E-01
   2 O   0.0000E+00 -2.7825E+00  2.7884E+00   0.0000E+00 -5.0000E-01  5.9530E-01
   3 N   8.1193E-01 -1.9706E+00  8.2719E-01   1.4590E-01 -3.5410E-01  1.7660E-01
   4 N  -8.1193E-01 -3.5944E+00  8.2719E-01  -1.4590E-01 -6.4590E-01  1.7660E-01
   5 H   8.0192E-01 -1.9806E+00 -1.7799E-01   1.4410E-01 -3.5590E-01 -3.8000E-02
   6 H   1.4330E+00 -1.3495E+00  1.3242E+00   2.5750E-01 -2.4250E-01  2.8270E-01
   7 H  -8.0192E-01 -3.5844E+00 -1.7799E-01  -1.4410E-01 -6.4410E-01 -3.8000E-02
   8 H  -1.4330E+00 -4.2155E+00  1.3242E+00  -2.5750E-01 -7.5750E-01  2.8270E-01
   9 C  -2.7825E+00  0.0000E+00 -1.5270E+00  -5.0000E-01  0.0000E+00 -3.2600E-01
  10 O  -2.7825E+00  0.0000E+00 -2.7884E+00  -5.0000E-01  0.0000E+00 -5.9530E-01
  11 N  -1.9706E+00 -8.1193E-01 -8.2719E-01  -3.5410E-01 -1.4590E-01 -1.7660E-01
  12 N  -3.5944E+00  8.1193E-01 -8.2719E-01  -6.4590E-01  1.4590E-01 -1.7660E-01
  13 H  -1.9806E+00 -8.0192E-01  1.7799E-01  -3.5590E-01 -1.4410E-01  3.8000E-02
  14 H  -1.3495E+00 -1.4330E+00 -1.3242E+00  -2.4250E-01 -2.5750E-01 -2.8270E-01
  15 H  -3.5844E+00  8.0192E-01  1.7799E-01  -6.4410E-01  1.4410E-01  3.8000E-02
  16 H  -4.2155E+00  1.4330E+00 -1.3242E+00  -7.5750E-01  2.5750E-01 -2.8270E-01
  17 C   0.0000E+00 -2.7825E+00 -3.1570E+00   0.0000E+00 -5.0000E-01 -6.7400E-01
  18 O   0.0000E+00 -2.7825E+00 -1.8956E+00   0.0000E+00 -5.0000E-01 -4.0470E-01
  19 N   8.1193E-01 -1.9706E+00 -3.8568E+00   1.4590E-01 -3.5410E-01 -8.2340E-01
  20 N  -8.1193E-01 -3.5944E+00 -3.8568E+00  -1.4590E-01 -6.4590E-01 -8.2340E-01
  21 H   8.0192E-01 -1.9806E+00 -4.8620E+00   1.4410E-01 -3.5590E-01 -1.0380E+00
  22 H   1.4330E+00 -1.3495E+00 -3.3598E+00   2.5750E-01 -2.4250E-01 -7.1730E-01
  23 H  -8.0192E-01 -3.5844E+00 -4.8620E+00  -1.4410E-01 -6.4410E-01 -1.0380E+00
  24 H  -1.4330E+00 -4.2155E+00 -3.3598E+00  -2.5750E-01 -7.5750E-01 -7.1730E-01
  25 C  -2.7825E+00  0.0000E+00 -6.2110E+00  -5.0000E-01  0.0000E+00 -1.3260E+00
  26 O  -2.7825E+00  0.0000E+00 -7.4724E+00  -5.0000E-01  0.0000E+00 -1.5953E+00
  27 N  -1.9706E+00 -8.1193E-01 -5.5112E+00  -3.5410E-01 -1.4590E-01 -1.1766E+00
  28 N  -3.5944E+00  8.1193E-01 -5.5112E+00  -6.4590E-01  1.4590E-01 -1.1766E+00
  29 H  -1.9806E+00 -8.0192E-01 -4.5060E+00  -3.5590E-01 -1.4410E-01 -9.6200E-01
  30 H  -1.3495E+00 -1.4330E+00 -6.0082E+00  -2.4250E-01 -2.5750E-01 -1.2827E+00
  31 H  -3.5844E+00  8.0192E-01 -4.5060E+00  -6.4410E-01  1.4410E-01 -9.6200E-01
  32 H  -4.2155E+00  1.4330E+00 -6.0082E+00  -7.5750E-01  2.5750E-01 -1.2827E+00
  33 C   0.0000E+00 -2.7825E+00  6.2110E+00   0.0000E+00 -5.0000E-01  1.3260E+00
  34 O   0.0000E+00 -2.7825E+00  7.4724E+00   0.0000E+00 -5.0000E-01  1.5953E+00
  35 N   8.1193E-01 -1.9706E+00  5.5112E+00   1.4590E-01 -3.5410E-01  1.1766E+00
  36 N  -8.1193E-01 -3.5944E+00  5.5112E+00  -1.4590E-01 -6.4590E-01  1.1766E+00
  37 H   8.0192E-01 -1.9806E+00  4.5060E+00   1.4410E-01 -3.5590E-01  9.6200E-01
  38 H   1.4330E+00 -1.3495E+00  6.0082E+00   2.5750E-01 -2.4250E-01  1.2827E+00
  39 H  -8.0192E-01 -3.5844E+00  4.5060E+00  -1.4410E-01 -6.4410E-01  9.6200E-01
  40 H  -1.4330E+00 -4.2155E+00  6.0082E+00  -2.5750E-01 -7.5750E-01  1.2827E+00
  41 C  -2.7825E+00  0.0000E+00  3.1570E+00  -5.0000E-01  0.0000E+00  6.7400E-01
  42 O  -2.7825E+00  0.0000E+00  1.8956E+00  -5.0000E-01  0.0000E+00  4.0470E-01
  43 N  -1.9706E+00 -8.1193E-01  3.8568E+00  -3.5410E-01 -1.4590E-01  8.2340E-01
  44 N  -3.5944E+00  8.1193E-01  3.8568E+00  -6.4590E-01  1.4590E-01  8.2340E-01
  45 H  -1.9806E+00 -8.0192E-01  4.8620E+00  -3.5590E-01 -1.4410E-01  1.0380E+00
  46 H  -1.3495E+00 -1.4330E+00  3.3598E+00  -2.4250E-01 -2.5750E-01  7.1730E-01
  47 H  -3.5844E+00  8.0192E-01  4.8620E+00  -6.4410E-01  1.4410E-01  1.0380E+00
  48 H  -4.2155E+00  1.4330E+00  3.3598E+00  -7.5750E-01  2.5750E-01  7.1730E-01
  49 C  -5.5650E+00 -2.7825E+00  1.5270E+00  -1.0000E+00 -5.0000E-01  3.2600E-01
  50 O  -5.5650E+00 -2.7825E+00  2.7884E+00  -1.0000E+00 -5.0000E-01  5.9530E-01
  51 N  -4.7531E+00 -1.9706E+00  8.2719E-01  -8.5410E-01 -3.5410E-01  1.7660E-01
  52 N  -6.3769E+00 -3.5944E+00  8.2719E-01  -1.1459E+00 -6.4590E-01  1.7660E-01
  53 H  -4.7631E+00 -1.9806E+00 -1.7799E-01  -8.5590E-01 -3.5590E-01 -3.8000E-02
  54 H  -4.1320E+00 -1.3495E+00  1.3242E+00  -7.4250E-01 -2.4250E-01  2.8270E-01
  55 H  -6.3669E+00 -3.5844E+00 -1.7799E-01  -1.1441E+00 -6.4410E-01 -3.8000E-02
  56 H  -6.9980E+00 -4.2155E+00  1.3242E+00  -1.2575E+00 -7.5750E-01  2.8270E-01
  57 C  -8.3475E+00  0.0000E+00 -1.5270E+00  -1.5000E+00  0.0000E+00 -3.2600E-01
  58 O  -8.3475E+00  0.0000E+00 -2.7884E+00  -1.5000E+00  0.0000E+00 -5.9530E-01
  59 N  -7.5356E+00 -8.1193E-01 -8.2719E-01  -1.3541E+00 -1.4590E-01 -1.7660E-01
  60 N  -9.1594E+00  8.1193E-01 -8.2719E-01  -1.6459E+00  1.4590E-01 -1.7660E-01
  61 H  -7.5456E+00 -8.0192E-01  1.7799E-01  -1.3559E+00 -1.4410E-01  3.8000E-02
  62 H  -6.9145E+00 -1.4330E+00 -1.3242E+00  -1.2425E+00 -2.5750E-01 -2.8270E-01
  63 H  -9.1494E+00  8.0192E-01  1.7799E-01  -1.6441E+00  1.4410E-01  3.8000E-02
  64 H  -9.7805E+00  1.4330E+00 -1.3242E+00  -1.7575E+00  2.5750E-01 -2.8270E-01
  65 C   5.5650E+00 -2.7825E+00  1.5270E+00   1.0000E+00 -5.0000E-01  3.2600E-01
  66 O   5.5650E+00 -2.7825E+00  2.7884E+00   1.0000E+00 -5.0000E-01  5.9530E-01
  67 N   6.3769E+00 -1.9706E+00  8.2719E-01   1.1459E+00 -3.5410E-01  1.7660E-01
  68 N   4.7531E+00 -3.5944E+00  8.2719E-01   8.5410E-01 -6.4590E-01  1.7660E-01
  69 H   6.3669E+00 -1.9806E+00 -1.7799E-01   1.1441E+00 -3.5590E-01 -3.8000E-02
  70 H   6.9980E+00 -1.3495E+00  1.3242E+00   1.2575E+00 -2.4250E-01  2.8270E-01
  71 H   4.7631E+00 -3.5844E+00 -1.7799E-01   8.5590E-01 -6.4410E-01 -3.8000E-02
  72 H   4.1320E+00 -4.2155E+00  1.3242E+00   7.4250E-01 -7.5750E-01  2.8270E-01
  73 C   2.7825E+00  0.0000E+00 -1.5270E+00   5.0000E-01  0.0000E+00 -3.2600E-01
  74 O   2.7825E+00  0.0000E+00 -2.7884E+00   5.0000E-01  0.0000E+00 -5.9530E-01
  75 N   3.5944E+00 -8.1193E-01 -8.2719E-01   6.4590E-01 -1.4590E-01 -1.7660E-01
  76 N   1.9706E+00  8.1193E-01 -8.2719E-01   3.5410E-01  1.4590E-01 -1.7660E-01
  77 H   3.5844E+00 -8.0192E-01  1.7799E-01   6.4410E-01 -1.4410E-01  3.8000E-02
  78 H   4.2155E+00 -1.4330E+00 -1.3242E+00   7.5750E-01 -2.5750E-01 -2.8270E-01
  79 H   1.9806E+00  8.0192E-01  1.7799E-01   3.5590E-01  1.4410E-01  3.8000E-02
  80 H   1.3495E+00  1.4330E+00 -1.3242E+00   2.4250E-01  2.5750E-01 -2.8270E-01
  81 C   0.0000E+00 -8.3475E+00  1.5270E+00   0.0000E+00 -1.5000E+00  3.2600E-01
  82 O   0.0000E+00 -8.3475E+00  2.7884E+00   0.0000E+00 -1.5000E+00  5.9530E-01
  83 N   8.1193E-01 -7.5356E+00  8.2719E-01   1.4590E-01 -1.3541E+00  1.7660E-01
  84 N  -8.1193E-01 -9.1594E+00  8.2719E-01  -1.4590E-01 -1.6459E+00  1.7660E-01
  85 H   8.0192E-01 -7.5456E+00 -1.7799E-01   1.4410E-01 -1.3559E+00 -3.8000E-02
  86 H   1.4330E+00 -6.9145E+00  1.3242E+00   2.5750E-01 -1.2425E+00  2.8270E-01
  87 H  -8.0192E-01 -9.1494E+00 -1.7799E-01  -1.4410E-01 -1.6441E+00 -3.8000E-02
  88 H  -1.4330E+00 -9.7805E+00  1.3242E+00  -2.5750E-01 -1.7575E+00  2.8270E-01
  89 C  -2.7825E+00 -5.5650E+00 -1.5270E+00  -5.0000E-01 -1.0000E+00 -3.2600E-01
  90 O  -2.7825E+00 -5.5650E+00 -2.7884E+00  -5.0000E-01 -1.0000E+00 -5.9530E-01
  91 N  -1.9706E+00 -6.3769E+00 -8.2719E-01  -3.5410E-01 -1.1459E+00 -1.7660E-01
  92 N  -3.5944E+00 -4.7531E+00 -8.2719E-01  -6.4590E-01 -8.5410E-01 -1.7660E-01
  93 H  -1.9806E+00 -6.3669E+00  1.7799E-01  -3.5590E-01 -1.1441E+00  3.8000E-02
  94 H  -1.3495E+00 -6.9980E+00 -1.3242E+00  -2.4250E-01 -1.2575E+00 -2.8270E-01
  95 H  -3.5844E+00 -4.7631E+00  1.7799E-01  -6.4410E-01 -8.5590E-01  3.8000E-02
  96 H  -4.2155E+00 -4.1320E+00 -1.3242E+00  -7.5750E-01 -7.4250E-01 -2.8270E-01
  97 C   0.0000E+00  2.7825E+00  1.5270E+00   0.0000E+00  5.0000E-01  3.2600E-01
  98 O   0.0000E+00  2.7825E+00  2.7884E+00   0.0000E+00  5.0000E-01  5.9530E-01
  99 N   8.1193E-01  3.5944E+00  8.2719E-01   1.4590E-01  6.4590E-01  1.7660E-01
 100 N  -8.1193E-01  1.9706E+00  8.2719E-01  -1.4590E-01  3.5410E-01  1.7660E-01
 101 H   8.0192E-01  3.5844E+00 -1.7799E-01   1.4410E-01  6.4410E-01 -3.8000E-02
 102 H   1.4330E+00  4.2155E+00  1.3242E+00   2.5750E-01  7.5750E-01  2.8270E-01
 103 H  -8.0192E-01  1.9806E+00 -1.7799E-01  -1.4410E-01  3.5590E-01 -3.8000E-02
 104 H  -1.4330E+00  1.3495E+00  1.3242E+00  -2.5750E-01  2.4250E-01  2.8270E-01
 105 C  -2.7825E+00  5.5650E+00 -1.5270E+00  -5.0000E-01  1.0000E+00 -3.2600E-01
 106 O  -2.7825E+00  5.5650E+00 -2.7884E+00  -5.0000E-01  1.0000E+00 -5.9530E-01
 107 N  -1.9706E+00  4.7531E+00 -8.2719E-01  -3.5410E-01  8.5410E-01 -1.7660E-01
 108 N  -3.5944E+00  6.3769E+00 -8.2719E-01  -6.4590E-01  1.1459E+00 -1.7660E-01
 109 H  -1.9806E+00  4.7631E+00  1.7799E-01  -3.5590E-01  8.5590E-01  3.8000E-02
 110 H  -1.3495E+00  4.1320E+00 -1.3242E+00  -2.4250E-01  7.4250E-01 -2.8270E-01
 111 H  -3.5844E+00  6.3669E+00  1.7799E-01  -6.4410E-01  1.1441E+00  3.8000E-02
 112 H  -4.2155E+00  6.9980E+00 -1.3242E+00  -7.5750E-01  1.2575E+00 -2.8270E-01

 GEOMETRY FOR WAVE FUNCTION - DIMENSIONALITY OF THE SYSTEM    3
 (NON PERIODIC DIRECTION: LATTICE PARAMETER FORMALLY SET TO 500)
 *******************************************************************************
 LATTICE PARAMETERS (ANGSTROMS AND DEGREES) - BOHR = 0.5291772083 ANGSTROM
 PRIMITIVE CELL - CENTRING CODE 1/0 VOLUME=   145.059850 - DENSITY  1.374 g/cm^3
         A              B              C           ALPHA      BETA       GAMMA 
     5.56500000     5.56500000     4.68400000    90.000000  90.000000  90.000000
 *******************************************************************************
 ATOMS IN THE ASYMMETRIC UNIT    5 - ATOMS IN THE UNIT CELL:   16
     ATOM                 X/A                 Y/B                 Z/C    
 *******************************************************************************
      1 T   6 C     0.000000000000E+00 -5.000000000000E-01  3.260000000000E-01
      2 T   8 O     0.000000000000E+00 -5.000000000000E-01 -4.047000000000E-01
      3 T   7 N     1.459000000000E-01 -3.541000000000E-01  1.766000000000E-01
      4 F   7 N    -1.459000000000E-01  3.541000000000E-01  1.766000000000E-01
      5 T   1 H     1.441000000000E-01 -3.559000000000E-01 -3.800000000000E-02
      6 T   1 H     2.575000000000E-01 -2.425000000000E-01  2.827000000000E-01
      7 F   1 H    -1.441000000000E-01  3.559000000000E-01 -3.800000000000E-02
      8 F   1 H    -2.575000000000E-01  2.425000000000E-01  2.827000000000E-01
      9 F   6 C     5.000000000000E-01  0.000000000000E+00 -3.260000000000E-01
     10 F   8 O     5.000000000000E-01  0.000000000000E+00  4.047000000000E-01
     11 F   7 N    -3.541000000000E-01 -1.459000000000E-01 -1.766000000000E-01
     12 F   7 N     3.541000000000E-01  1.459000000000E-01 -1.766000000000E-01
     13 F   1 H    -3.559000000000E-01 -1.441000000000E-01  3.800000000000E-02
     14 F   1 H    -2.425000000000E-01 -2.575000000000E-01 -2.827000000000E-01
     15 F   1 H     3.559000000000E-01  1.441000000000E-01  3.800000000000E-02
     16 F   1 H     2.425000000000E-01  2.575000000000E-01 -2.827000000000E-01

 T = ATOM BELONGING TO THE ASYMMETRIC UNIT

 ****    8 SYMMOPS - TRANSLATORS IN FRACTIONAL UNITS
 **** MATRICES AND TRANSLATORS IN THE CRYSTALLOGRAPHIC REFERENCE FRAME
   V INV                    ROTATION MATRICES                   TRANSLATORS
   1   1  1.00  0.00  0.00  0.00  1.00  0.00  0.00  0.00  1.00  0.00  0.00  0.00
   2   2 -1.00  0.00  0.00  0.00 -1.00  0.00  0.00  0.00  1.00  0.00  0.00  0.00
   3   3  1.00  0.00  0.00  0.00 -1.00  0.00  0.00  0.00 -1.00  0.50  0.50  0.00
   4   4 -1.00  0.00  0.00  0.00  1.00  0.00  0.00  0.00 -1.00  0.50  0.50  0.00
   5   5  0.00  1.00  0.00  1.00  0.00  0.00  0.00  0.00  1.00  0.50  0.50  0.00
   6   6  0.00 -1.00  0.00 -1.00  0.00  0.00  0.00  0.00  1.00  0.50  0.50  0.00
   7   8  0.00 -1.00  0.00  1.00  0.00  0.00  0.00  0.00 -1.00  0.00  0.00  0.00
   8   7  0.00  1.00  0.00 -1.00  0.00  0.00  0.00  0.00 -1.00  0.00  0.00  0.00

 DIRECT LATTICE VECTORS CARTESIAN COMPONENTS (ANGSTROM)
          X                    Y                    Z
   0.556500000000E+01   0.000000000000E+00   0.000000000000E+00
   0.000000000000E+00   0.556500000000E+01   0.000000000000E+00
   0.000000000000E+00   0.000000000000E+00   0.468400000000E+01


 CARTESIAN COORDINATES - PRIMITIVE CELL
 *******************************************************************************
 *      ATOM          X(ANGSTROM)         Y(ANGSTROM)         Z(ANGSTROM)
 *******************************************************************************
    1     6 C     0.000000000000E+00 -2.782500000000E+00  1.526984000000E+00
    2     8 O     0.000000000000E+00 -2.782500000000E+00  2.788385200000E+00
    3     7 N     8.119335000000E-01 -1.970566500000E+00  8.271944000000E-01
    4     7 N    -8.119335000000E-01 -3.594433500000E+00  8.271944000000E-01
    5     1 H     8.019165000000E-01 -1.980583500000E+00 -1.779920000000E-01
    6     1 H     1.432987500000E+00 -1.349512500000E+00  1.324166800000E+00
    7     1 H    -8.019165000000E-01 -3.584416500000E+00 -1.779920000000E-01
    8     1 H    -1.432987500000E+00 -4.215487500000E+00  1.324166800000E+00
    9     6 C    -2.782500000000E+00  0.000000000000E+00 -1.526984000000E+00
   10     8 O    -2.782500000000E+00  0.000000000000E+00 -2.788385200000E+00
   11     7 N    -1.970566500000E+00 -8.119335000000E-01 -8.271944000000E-01
   12     7 N    -3.594433500000E+00  8.119335000000E-01 -8.271944000000E-01
   13     1 H    -1.980583500000E+00 -8.019165000000E-01  1.779920000000E-01
   14     1 H    -1.349512500000E+00 -1.432987500000E+00 -1.324166800000E+00
   15     1 H    -3.584416500000E+00  8.019165000000E-01  1.779920000000E-01
   16     1 H    -4.215487500000E+00  1.432987500000E+00 -1.324166800000E+00

 *******************************************************************************
 LOCAL ATOMIC FUNCTIONS BASIS SET
 *******************************************************************************
   ATOM   X(AU)   Y(AU)   Z(AU)  N. TYPE  EXPONENT  S COEF   P COEF   D/F/G COEF
 *******************************************************************************
   1 C    0.000  -5.258   2.886
                                  1 S  
                                         3.048E+03 1.826E-03 0.000E+00 0.000E+00
                                         4.564E+02 1.406E-02 0.000E+00 0.000E+00
                                         1.037E+02 6.876E-02 0.000E+00 0.000E+00
                                         2.923E+01 2.304E-01 0.000E+00 0.000E+00
                                         9.349E+00 4.685E-01 0.000E+00 0.000E+00
                                         3.189E+00 3.628E-01 0.000E+00 0.000E+00
                           2-     5 SP 
                                         3.665E+00-3.959E-01 2.365E-01 0.000E+00
                                         7.705E-01 1.216E+00 8.606E-01 0.000E+00
                           6-     9 SP 
                                         1.959E-01 1.000E+00 1.000E+00 0.000E+00
                          10-    14 D  
                                         8.000E-01 0.000E+00 0.000E+00 1.000E+00
   2 O    0.000  -5.258   5.269
                                 15 S  
                                         5.472E+03 1.832E-03 0.000E+00 0.000E+00
                                         8.178E+02 1.410E-02 0.000E+00 0.000E+00
                                         1.864E+02 6.863E-02 0.000E+00 0.000E+00
                                         5.302E+01 2.294E-01 0.000E+00 0.000E+00
                                         1.718E+01 4.664E-01 0.000E+00 0.000E+00
                                         5.912E+00 3.642E-01 0.000E+00 0.000E+00
                          16-    19 SP 
                                         7.403E+00-4.045E-01 2.446E-01 0.000E+00
                                         1.576E+00 1.222E+00 8.540E-01 0.000E+00
                          20-    23 SP 
                                         3.737E-01 1.000E+00 1.000E+00 0.000E+00
                          24-    28 D  
                                         8.000E-01 0.000E+00 0.000E+00 1.000E+00
   3 N    1.534  -3.724   1.563
                                 29 S  
                                         4.150E+03 1.845E-03 0.000E+00 0.000E+00
                                         6.201E+02 1.416E-02 0.000E+00 0.000E+00
                                         1.417E+02 6.863E-02 0.000E+00 0.000E+00
                                         4.034E+01 2.286E-01 0.000E+00 0.000E+00
                                         1.303E+01 4.662E-01 0.000E+00 0.000E+00
                                         4.470E+00 3.657E-01 0.000E+00 0.000E+00
                          30-    33 SP 
                                         5.425E+00-4.133E-01 2.380E-01 0.000E+00
                                         1.149E+00 1.224E+00 8.590E-01 0.000E+00
                          34-    37 SP 
                                         2.832E-01 1.000E+00 1.000E+00 0.000E+00
                          38-    42 D  
                                         8.000E-01 0.000E+00 0.000E+00 1.000E+00
   4 N   -1.534  -6.792   1.563
   5 H    1.515  -3.743  -0.336
                                 57 S  
                                         5.447E+00 1.563E-01 0.000E+00 0.000E+00
                                         8.245E-01 9.047E-01 0.000E+00 0.000E+00
                                 58 S  
                                         1.832E-01 1.000E+00 0.000E+00 0.000E+00
                          59-    61 P  
                                         1.100E+00 0.000E+00 1.000E+00 0.000E+00
   6 H    2.708  -2.550   2.502
   7 H   -1.515  -6.774  -0.336
   8 H   -2.708  -7.966   2.502
   9 C   -5.258   0.000  -2.886
  10 O   -5.258   0.000  -5.269
  11 N   -3.724  -1.534  -1.563
  12 N   -6.792   1.534  -1.563
  13 H   -3.743  -1.515   0.336
  14 H   -2.550  -2.708  -2.502
  15 H   -6.774   1.515   0.336
  16 H   -7.966   2.708  -2.502
 ERROR **** TESTBS **** BASIS SET INPUT TEST
 TTTTTTTTTTTTTTTTTTTTTTTTTTTTTT ERR         TELAPSE        0.05 TCPU        0.05
