
         
 *******************************************************************************
 *                                                                             *
 *                               CRYSTAL23                                     *
 *                      public : 1.0.1 - October 2022                          *
 *                       HTTP://WWW.CRYSTAL.UNITO.IT                           *
 *                                                                             *
 *                              MAIN AUTHORS                                   *
 *                                                                             *
 *  R. DOVESI(1,11), V.R. SAUNDERS(2), C. ROETTI(1,11), R. ORLANDO(1,11),      *
 *  C.M. ZICOVICH-WILSON(1,3), F. PASCALE(4), B. CIVALLERI(1,11),              *
 *  K. DOLL(5), N.M. HARRISON(6), I.J. BUSH(7), Ph. D'ARCO(8),                 *
 *  M. LLUNELL(9), M. CAUSA'(10), Y. NOEL(8), L. MASCHIO(1,11), A. ERBA(1,11)  *
 *  M. RE'RAT(14), S. CASASSA(1,11), B.G. SEARLE(2), J.K. DESMARAIS(1)         *
 *                                                                             *
 *        CONTRIBUTIONS TO THE CODE HAVE ALSO BEEN GIVEN BY                    *
 *                                                                             *
 *  M. FERRABONE(1,11), M. DE LA PIERRE(1,11), M. FERRERO(1,11),               *
 *  J. BAIMA(1,11), E. ALBANESE(1,11), M.F. PEINTINGER(12), R. BAST(13),       *
 *  B. KIRTMAN(15), V. LACIVITA(1,11), R. DEMICHELIS(1,16)                     *
 *  G. BRANDEBURG(17), S. SALUSTRO(1,11), G. SANSONE(1,11)                     *
 *  M.T. RUGGIERO(18), L.E. DAGA(1), L. DONA'(1), A. COSSARD(1)                *
 *                                                                             *
 * (1) THEORETICAL CHEMISTRY GROUP - UNIVERSITA' DI TORINO - TORINO (ITALY)    *
 * (2) SCIENTIFIC COMPUTING DEPARTMENT - STFC DARESBURY (UK)                   *
 * (3) UNIVERSIDAD AUTONOMA DEL ESTADO DE MORELOS - CUERNAVACA (MEXICO)        *
 * (4) UNIVERSITE' DE LORRAINE - NANCY (FRANCE)                                *
 * (5) UNIVERSITAET STUTTGART- STUTTGART (GERMANY)                             *
 * (6) IMPERIAL COLLEGE - LONDON (UK)                                          *
 * (7) SCIENTIFIC COMPUTING DEPARTMENT - STFC RAL (UK)                         *
 * (8) UPMC - SORBONNE UNIVERSITES - PARIS (FRANCE)                            *
 * (9) UNIVERSIDAD DE BARCELONA - BARCELONA (SPAIN)                            *
 *(10) UNIVERSITA' DI NAPOLI "FEDERICO II" - NAPOLI (ITALY)                    *
 *(11) NIS - NANOSTRUCTURED INTERFACES AND SURFACES - TORINO (ITALY)           *
 *(12) MPI FUER CHEMISCHE ENERGIEKONVERSION - MUELHEIM AN DER RUHR (GERMANY)   *
 *(13) UNIVERSITY OF TROMSO - TROMSO (NORWAY)                                  *
 *(14) UNIVERSITE' DE PAU ET DES PAYS DE L'ADOUR - PAU (FRANCE)                *
 *(15) UNIVERSITY OF CALIFORNIA SANTA BARBARA - SANTA BARBARA (USA)            *
 *(16) CURTIN UNIVERSITY - PERTH (AUSTRALIA)                                   *
 *(17) UNIVERSITY COLLEGE LONDON - LONDON (UK)                                 *
 *(18) UNIVERSITY OF VERMONT - BURLINGTON (USA)                                *
 *                                                                             *
 *******************************************************************************
 EEEEEEEEEE STARTING  DATE 17 09 2024 TIME 13:48:59.3
 SILICON BULK - BASIS SET 6-21 MODIFIED                                          

 CRYSTAL CALCULATION
 (INPUT ACCORDING TO THE INTERNATIONAL TABLES FOR X-RAY CRYSTALLOGRAPHY)
 CRYSTAL FAMILY                       :  CUBIC       
 CRYSTAL CLASS  (GROTH - 1921)        :  CUBIC HEXAKISOCTAHEDRAL              

 SPACE GROUP (CENTROSYMMETRIC)        :  F D 3 M         

 LATTICE PARAMETERS  (ANGSTROMS AND DEGREES) - CONVENTIONAL CELL
        A           B           C        ALPHA        BETA       GAMMA
     5.42000     5.42000     5.42000    90.00000    90.00000    90.00000


 NUMBER OF IRREDUCIBLE ATOMS IN THE CONVENTIONAL CELL:    1

 INPUT COORDINATES

 ATOM AT. N.              COORDINATES
   1  14     1.250000000000E-01  1.250000000000E-01  1.250000000000E-01

 *******************************************************************************

 << INFORMATION >>: FROM NOW ON, ALL COORDINATES REFER TO THE PRIMITIVE CELL

 *******************************************************************************

 LATTICE PARAMETERS  (ANGSTROMS AND DEGREES) - PRIMITIVE CELL
       A          B          C        ALPHA      BETA     GAMMA        VOLUME
    3.83252    3.83252    3.83252    60.00000  60.00000  60.00000     39.805022

 COORDINATES OF THE EQUIVALENT ATOMS (FRACTIONAL UNITS)

 N. ATOM EQUIV AT. N.          X                  Y                  Z

   1   1   1   14 SI    1.25000000000E-01  1.25000000000E-01  1.25000000000E-01
   2   1   2   14 SI   -1.25000000000E-01 -1.25000000000E-01 -1.25000000000E-01

 NUMBER OF SYMMETRY OPERATORS         :   48
 *******************************************************************************
 * GEOMETRY EDITING - INPUT COORDINATES ARE GIVEN IN ANGSTROM         
 *******************************************************************************

 GEOMETRY NOW FULLY CONSISTENT WITH THE GROUP

 GCALCO - MAX INDICES DIRECT LATTICE VECTOR    14    14    14
 NO.OF VECTORS CREATED 6999 STARS  105 RMAX    76.64647 BOHR

 STAR N.   2 N. OF VECTORS  12 R=  7.2424108E+00

 STAR N.   3 N. OF VECTORS   6 R=  1.0242316E+01

 *******************************************************************************
 ATOM COORDINATES 
 *******************************************************************************
                    ANGSTROM                               FRACTIONAL
  ATOM       X          Y          Z                X          Y          Z
 *******************************************************************************
   1 SI  6.7750E-01  6.7750E-01  6.7750E-01   1.2500E-01  1.2500E-01  1.2500E-01
   2 SI -6.7750E-01 -6.7750E-01 -6.7750E-01  -1.2500E-01 -1.2500E-01 -1.2500E-01
   3 SI  6.7750E-01 -2.0325E+00 -2.0325E+00  -8.7500E-01  1.2500E-01  1.2500E-01
   4 SI -6.7750E-01 -3.3875E+00 -3.3875E+00  -1.1250E+00 -1.2500E-01 -1.2500E-01
   5 SI  6.7750E-01  3.3875E+00  3.3875E+00   1.1250E+00  1.2500E-01  1.2500E-01
   6 SI -6.7750E-01  2.0325E+00  2.0325E+00   8.7500E-01 -1.2500E-01 -1.2500E-01
   7 SI  3.3875E+00  6.7750E-01 -2.0325E+00  -8.7500E-01  1.2500E-01  1.1250E+00
   8 SI  2.0325E+00 -6.7750E-01 -3.3875E+00  -1.1250E+00 -1.2500E-01  8.7500E-01
   9 SI -2.0325E+00  6.7750E-01  3.3875E+00   1.1250E+00  1.2500E-01 -8.7500E-01
  10 SI -3.3875E+00 -6.7750E-01  2.0325E+00   8.7500E-01 -1.2500E-01 -1.1250E+00
  11 SI  3.3875E+00 -2.0325E+00  6.7750E-01  -8.7500E-01  1.1250E+00  1.2500E-01
  12 SI  2.0325E+00 -3.3875E+00 -6.7750E-01  -1.1250E+00  8.7500E-01 -1.2500E-01
  13 SI -2.0325E+00  3.3875E+00  6.7750E-01   1.1250E+00 -8.7500E-01  1.2500E-01
  14 SI -3.3875E+00  2.0325E+00 -6.7750E-01   8.7500E-01 -1.1250E+00 -1.2500E-01
  15 SI -2.0325E+00  6.7750E-01 -2.0325E+00   1.2500E-01 -8.7500E-01  1.2500E-01
  16 SI -3.3875E+00 -6.7750E-01 -3.3875E+00  -1.2500E-01 -1.1250E+00 -1.2500E-01
  17 SI  3.3875E+00  6.7750E-01  3.3875E+00   1.2500E-01  1.1250E+00  1.2500E-01
  18 SI  2.0325E+00 -6.7750E-01  2.0325E+00  -1.2500E-01  8.7500E-01 -1.2500E-01
  19 SI  6.7750E-01  3.3875E+00 -2.0325E+00   1.2500E-01 -8.7500E-01  1.1250E+00
  20 SI -6.7750E-01  2.0325E+00 -3.3875E+00  -1.2500E-01 -1.1250E+00  8.7500E-01
  21 SI  6.7750E-01 -2.0325E+00  3.3875E+00   1.2500E-01  1.1250E+00 -8.7500E-01
  22 SI -6.7750E-01 -3.3875E+00  2.0325E+00  -1.2500E-01  8.7500E-01 -1.1250E+00
  23 SI -2.0325E+00 -2.0325E+00  6.7750E-01   1.2500E-01  1.2500E-01 -8.7500E-01
  24 SI -3.3875E+00 -3.3875E+00 -6.7750E-01  -1.2500E-01 -1.2500E-01 -1.1250E+00
  25 SI  3.3875E+00  3.3875E+00  6.7750E-01   1.2500E-01  1.2500E-01  1.1250E+00
  26 SI  2.0325E+00  2.0325E+00 -6.7750E-01  -1.2500E-01 -1.2500E-01  8.7500E-01
  27 SI  6.7750E-01  6.7750E-01 -4.7425E+00  -8.7500E-01 -8.7500E-01  1.1250E+00
  28 SI -6.7750E-01 -6.7750E-01 -6.0975E+00  -1.1250E+00 -1.1250E+00  8.7500E-01
  29 SI  6.7750E-01  6.7750E-01  6.0975E+00   1.1250E+00  1.1250E+00 -8.7500E-01
  30 SI -6.7750E-01 -6.7750E-01  4.7425E+00   8.7500E-01  8.7500E-01 -1.1250E+00
  31 SI  6.7750E-01 -4.7425E+00  6.7750E-01  -8.7500E-01  1.1250E+00 -8.7500E-01
  32 SI -6.7750E-01 -6.0975E+00 -6.7750E-01  -1.1250E+00  8.7500E-01 -1.1250E+00
  33 SI  6.7750E-01  6.0975E+00  6.7750E-01   1.1250E+00 -8.7500E-01  1.1250E+00
  34 SI -6.7750E-01  4.7425E+00 -6.7750E-01   8.7500E-01 -1.1250E+00  8.7500E-01
  35 SI  6.0975E+00  6.7750E-01  6.7750E-01  -8.7500E-01  1.1250E+00  1.1250E+00
  36 SI  4.7425E+00 -6.7750E-01 -6.7750E-01  -1.1250E+00  8.7500E-01  8.7500E-01
  37 SI -4.7425E+00  6.7750E-01  6.7750E-01   1.1250E+00 -8.7500E-01 -8.7500E-01
  38 SI -6.0975E+00 -6.7750E-01 -6.7750E-01   8.7500E-01 -1.1250E+00 -1.1250E+00

 GEOMETRY FOR WAVE FUNCTION - DIMENSIONALITY OF THE SYSTEM    3
 (NON PERIODIC DIRECTION: LATTICE PARAMETER FORMALLY SET TO 500)
 *******************************************************************************
 LATTICE PARAMETERS (ANGSTROMS AND DEGREES) - BOHR = 0.5291772083 ANGSTROM
 PRIMITIVE CELL - CENTRING CODE 5/0 VOLUME=    39.805022 - DENSITY  2.334 g/cm^3
         A              B              C           ALPHA      BETA       GAMMA 
     3.83251875     3.83251875     3.83251875    60.000000  60.000000  60.000000
 *******************************************************************************
 ATOMS IN THE ASYMMETRIC UNIT    1 - ATOMS IN THE UNIT CELL:    2
     ATOM                 X/A                 Y/B                 Z/C    
 *******************************************************************************
      1 T  14 SI    1.250000000000E-01  1.250000000000E-01  1.250000000000E-01
      2 F  14 SI   -1.250000000000E-01 -1.250000000000E-01 -1.250000000000E-01

 TRANSFORMATION MATRIX PRIMITIVE-CRYSTALLOGRAPHIC CELL
 -1.0000  1.0000  1.0000  1.0000 -1.0000  1.0000  1.0000  1.0000 -1.0000

 *******************************************************************************
 CRYSTALLOGRAPHIC CELL (VOLUME=        159.22008800)
         A              B              C           ALPHA      BETA       GAMMA 
     5.42000000     5.42000000     5.42000000    90.000000  90.000000  90.000000

 COORDINATES IN THE CRYSTALLOGRAPHIC CELL
     ATOM                 X/A                 Y/B                 Z/C    
 *******************************************************************************
      1 T  14 SI    1.250000000000E-01  1.250000000000E-01  1.250000000000E-01
      2 F  14 SI   -1.250000000000E-01 -1.250000000000E-01 -1.250000000000E-01

 T = ATOM BELONGING TO THE ASYMMETRIC UNIT

 ****   48 SYMMOPS - TRANSLATORS IN FRACTIONAL UNITS
 **** MATRICES AND TRANSLATORS IN THE CRYSTALLOGRAPHIC REFERENCE FRAME
   V INV                    ROTATION MATRICES                   TRANSLATORS
   1   1  1.00  0.00  0.00  0.00  1.00  0.00  0.00  0.00  1.00  0.00  0.00  0.00
   2   2 -0.00  1.00  0.00  1.00 -0.00 -0.00 -1.00 -1.00 -1.00  0.00  0.00  0.50
   3   3 -1.00 -1.00 -1.00  0.00  0.00  1.00 -0.00  1.00  0.00  0.50 -0.00  0.00
   4   4  0.00  0.00  1.00 -1.00 -1.00 -1.00  1.00 -0.00 -0.00  0.00  0.50  0.00
   5   6 -0.00  0.00  1.00  1.00 -0.00 -0.00  0.00  1.00  0.00  0.00  0.00  0.00
   6   5 -0.00  1.00  0.00  0.00  0.00  1.00  1.00 -0.00 -0.00  0.00  0.00  0.00
   7   8  1.00 -0.00 -0.00 -0.00  0.00  1.00 -1.00 -1.00 -1.00  0.00  0.00  0.50
   8   7  1.00 -0.00 -0.00 -1.00 -1.00 -1.00 -0.00  1.00  0.00  0.00  0.50  0.00
   9  10 -1.00 -1.00 -1.00  0.00  1.00  0.00  1.00 -0.00 -0.00  0.50 -0.00  0.00
  10   9  0.00  0.00  1.00 -0.00  1.00  0.00 -1.00 -1.00 -1.00  0.00  0.00  0.50
  11  12  0.00  1.00  0.00 -1.00 -1.00 -1.00 -0.00  0.00  1.00  0.00  0.50  0.00
  12  11 -1.00 -1.00 -1.00  1.00 -0.00 -0.00  0.00  0.00  1.00  0.50 -0.00  0.00
  13  13  0.00 -1.00 -0.00 -1.00  0.00  0.00 -0.00 -0.00 -1.00  0.00  0.00  0.00
  14  14 -1.00  0.00  0.00  0.00 -1.00 -0.00  1.00  1.00  1.00  0.00  0.00  0.50
  15  16 -0.00 -0.00 -1.00  1.00  1.00  1.00  0.00 -1.00 -0.00  0.00  0.50  0.00
  16  15  1.00  1.00  1.00 -0.00 -0.00 -1.00 -1.00  0.00  0.00  0.50 -0.00  0.00
  17  17 -1.00  0.00  0.00  0.00 -0.00 -1.00 -0.00 -1.00 -0.00  0.00  0.00  0.00
  18  18  0.00 -0.00 -1.00 -0.00 -1.00 -0.00 -1.00  0.00  0.00  0.00  0.00  0.00
  19  21  0.00 -0.00 -1.00 -1.00  0.00  0.00  1.00  1.00  1.00  0.00  0.00  0.50
  20  22  1.00  1.00  1.00 -1.00  0.00  0.00 -0.00 -1.00 -0.00  0.50 -0.00  0.00
  21  19 -0.00 -1.00 -0.00  1.00  1.00  1.00 -1.00  0.00  0.00  0.00  0.50  0.00
  22  20 -0.00 -1.00 -0.00  0.00 -0.00 -1.00  1.00  1.00  1.00  0.00  0.00  0.50
  23  23  1.00  1.00  1.00 -0.00 -1.00 -0.00  0.00 -0.00 -1.00  0.50 -0.00  0.00
  24  24 -1.00  0.00  0.00  1.00  1.00  1.00  0.00 -0.00 -1.00  0.00  0.50  0.00
  25  25 -1.00  0.00  0.00  0.00 -1.00 -0.00 -0.00 -0.00 -1.00  0.00  0.00  0.00
  26  26  0.00 -1.00 -0.00 -1.00  0.00  0.00  1.00  1.00  1.00  0.00  0.00  0.50
  27  27  1.00  1.00  1.00 -0.00 -0.00 -1.00  0.00 -1.00 -0.00  0.50 -0.00  0.00
  28  28 -0.00 -0.00 -1.00  1.00  1.00  1.00 -1.00  0.00  0.00  0.00  0.50  0.00
  29  30  0.00 -0.00 -1.00 -1.00  0.00  0.00 -0.00 -1.00 -0.00  0.00  0.00  0.00
  30  29  0.00 -1.00 -0.00 -0.00 -0.00 -1.00 -1.00  0.00  0.00  0.00  0.00  0.00
  31  32 -1.00  0.00  0.00  0.00 -0.00 -1.00  1.00  1.00  1.00  0.00  0.00  0.50
  32  31 -1.00  0.00  0.00  1.00  1.00  1.00  0.00 -1.00 -0.00  0.00  0.50  0.00
  33  34  1.00  1.00  1.00 -0.00 -1.00 -0.00 -1.00  0.00  0.00  0.50 -0.00  0.00
  34  33 -0.00 -0.00 -1.00  0.00 -1.00 -0.00  1.00  1.00  1.00  0.00  0.00  0.50
  35  36 -0.00 -1.00 -0.00  1.00  1.00  1.00  0.00 -0.00 -1.00  0.00  0.50  0.00
  36  35  1.00  1.00  1.00 -1.00  0.00  0.00 -0.00 -0.00 -1.00  0.50 -0.00  0.00
  37  37 -0.00  1.00  0.00  1.00 -0.00 -0.00  0.00  0.00  1.00  0.00  0.00  0.00
  38  38  1.00 -0.00 -0.00 -0.00  1.00  0.00 -1.00 -1.00 -1.00  0.00  0.00  0.50
  39  40  0.00  0.00  1.00 -1.00 -1.00 -1.00 -0.00  1.00  0.00  0.00  0.50  0.00
  40  39 -1.00 -1.00 -1.00  0.00  0.00  1.00  1.00 -0.00 -0.00  0.50 -0.00  0.00
  41  41  1.00 -0.00 -0.00 -0.00  0.00  1.00  0.00  1.00  0.00  0.00  0.00  0.00
  42  42 -0.00  0.00  1.00  0.00  1.00  0.00  1.00 -0.00 -0.00  0.00  0.00  0.00
  43  45 -0.00  0.00  1.00  1.00 -0.00 -0.00 -1.00 -1.00 -1.00  0.00  0.00  0.50
  44  46 -1.00 -1.00 -1.00  1.00 -0.00 -0.00  0.00  1.00  0.00  0.50 -0.00  0.00
  45  43  0.00  1.00  0.00 -1.00 -1.00 -1.00  1.00 -0.00 -0.00  0.00  0.50  0.00
  46  44  0.00  1.00  0.00 -0.00  0.00  1.00 -1.00 -1.00 -1.00  0.00  0.00  0.50
  47  47 -1.00 -1.00 -1.00  0.00  1.00  0.00 -0.00  0.00  1.00  0.50 -0.00  0.00
  48  48  1.00 -0.00 -0.00 -1.00 -1.00 -1.00 -0.00  0.00  1.00  0.00  0.50  0.00

 DIRECT LATTICE VECTORS CARTESIAN COMPONENTS (ANGSTROM)
          X                    Y                    Z
   0.000000000000E+00   0.271000000000E+01   0.271000000000E+01
   0.271000000000E+01   0.000000000000E+00   0.271000000000E+01
   0.271000000000E+01   0.271000000000E+01   0.000000000000E+00


 CARTESIAN COORDINATES - PRIMITIVE CELL
 *******************************************************************************
 *      ATOM          X(ANGSTROM)         Y(ANGSTROM)         Z(ANGSTROM)
 *******************************************************************************
    1    14 SI    6.775000000000E-01  6.775000000000E-01  6.775000000000E-01
    2    14 SI   -6.775000000000E-01 -6.775000000000E-01 -6.775000000000E-01

 *******************************************************************************
 LOCAL ATOMIC FUNCTIONS BASIS SET
 *******************************************************************************
   ATOM   X(AU)   Y(AU)   Z(AU)  N. TYPE  EXPONENT  S COEF   P COEF   D/F/G COEF
 *******************************************************************************
   1 SI   1.280   1.280   1.280
                                  1 S  
                                         1.612E+04 1.959E-03 0.000E+00 0.000E+00
                                         2.426E+03 1.493E-02 0.000E+00 0.000E+00
                                         5.539E+02 7.285E-02 0.000E+00 0.000E+00
                                         1.563E+02 2.461E-01 0.000E+00 0.000E+00
                                         5.007E+01 4.859E-01 0.000E+00 0.000E+00
                                         1.702E+01 3.250E-01 0.000E+00 0.000E+00
                           2-     5 SP 
                                         2.927E+02-2.781E-03 4.438E-03 0.000E+00
                                         6.987E+01-3.571E-02 3.267E-02 0.000E+00
                                         2.234E+01-1.150E-01 1.347E-01 0.000E+00
                                         8.150E+00 9.356E-02 3.287E-01 0.000E+00
                                         3.135E+00 6.030E-01 4.496E-01 0.000E+00
                                         1.225E+00 4.190E-01 2.614E-01 0.000E+00
                           6-     9 SP 
                                         1.079E+00-3.761E-01 6.710E-02 0.000E+00
                                         3.024E-01 1.252E+00 9.569E-01 0.000E+00
                          10-    13 SP 
                                         1.233E-01 1.000E+00 1.000E+00 0.000E+00
   2 SI  -1.280  -1.280  -1.280
 INFORMATION **** SET_MPP **** PCRYSTAL CALCULATION
 INFORMATION **** READM2 **** NEW DEFAULT: FOCK/KS MATRIX MIXING SET TO 30 %
 INFORMATION **** READM2 **** NEW DEFAULT: FULL DIRECT SCF MODE
 INFORMATION **** READM2 **** NEW DEFAULT: COULOMB BIPOLAR BUFFER SET TO 32 Mb
 INFORMATION **** READM2 **** NEW DEFAULT: EXCHANGE BIPOLAR BUFFER SET TO 32 Mb
 INFORMATION **** PPAN ****  MULLIKEN POPULATION ANALYSIS AT THE END OF SCF
 *******************************************************************************
 N. OF ATOMS PER CELL         2  COULOMB OVERLAP TOL         (T1) 10**   -6
 NUMBER OF SHELLS             8  COULOMB PENETRATION TOL     (T2) 10**   -6
 NUMBER OF AO                26  EXCHANGE OVERLAP TOL        (T3) 10**   -6
 N. OF ELECTRONS PER CELL    28  EXCHANGE PSEUDO OVP (F(G))  (T4) 10**   -6
 CORE ELECTRONS PER CELL     20  EXCHANGE PSEUDO OVP (P(G))  (T5) 10**  -12
 N. OF SYMMETRY OPERATORS    48  POLE ORDER IN MONO ZONE                  4
 *******************************************************************************
 TYPE OF CALCULATION :  RESTRICTED CLOSED SHELL
 HARTREE-FOCK HAMILTONIAN

 CAPPA:IS1  8;IS2  8;IS3  8; K PTS MONK NET  29; SYMMOPS:K SPACE  48;G SPACE  48

 *******************************************************************************
 MAX NUMBER OF SCF CYCLES      50  CONVERGENCE ON DELTAP        10**-16
 WEIGHT OF F(I) IN F(I+1)      30% CONVERGENCE ON ENERGY        10**- 6
 SHRINK. FACT.(MONKH.)    8  8  8  NUMBER OF K POINTS IN THE IBZ     29
 SHRINKING FACTOR(GILAT NET)    8  NUMBER OF K POINTS(GILAT NET)     29
 *******************************************************************************
 *** K POINTS COORDINATES (OBLIQUE COORDINATES IN UNITS OF IS =  8)
   1-R(  0  0  0)   2-C(  1  0  0)   3-C(  2  0  0)   4-C(  3  0  0)
   5-R(  4  0  0)   6-C(  1  1  0)   7-C(  2  1  0)   8-C(  3  1  0)
   9-C(  4  1  0)  10-C(  5  1  0)  11-C(  6  1  0)  12-C(  7  1  0)
  13-C(  2  2  0)  14-C(  3  2  0)  15-C(  4  2  0)  16-C(  5  2  0)
  17-C(  6  2  0)  18-C(  3  3  0)  19-C(  4  3  0)  20-C(  5  3  0)
  21-R(  4  4  0)  22-C(  3  2  1)  23-C(  4  2  1)  24-C(  5  2  1)
  25-C(  4  3  1)  26-C(  5  3  1)  27-C(  6  3  1)  28-C(  5  4  1)
  29-C(  6  4  2)

 DIRECT LATTICE VECTORS COMPON. (A.U.)     RECIP. LATTICE VECTORS COMPON. (A.U.) 
        X            Y            Z              X            Y            Z
    0.0000000    5.1211578    5.1211578     -0.6134536    0.6134536    0.6134536
    5.1211578    0.0000000    5.1211578      0.6134536   -0.6134536    0.6134536
    5.1211578    5.1211578    0.0000000      0.6134536    0.6134536   -0.6134536

 DISK SPACE FOR EIGENVECTORS (FTN 10)       37180 REALS

 SYMMETRY ADAPTION OF THE BLOCH FUNCTIONS ENABLED
 TTTTTTTTTTTTTTTTTTTTTTTTTTTTTT gordsh1     TELAPSE        0.06 TCPU        0.05

 MATRIX SIZE: P(G)   34546, F(G)    5854, P(G) IRR    1137, F(G) IRR     525
 MAX G-VECTOR INDEX FOR 1- AND 2-ELECTRON INTEGRALS 247

 TTTTTTTTTTTTTTTTTTTTTTTTTTTTTT INPUT       TELAPSE        0.06 TCPU        0.05

 NEIGHBORS OF THE NON-EQUIVALENT ATOMS

 N = NUMBER OF NEIGHBORS AT DISTANCE R
    ATOM  N     R/ANG      R/AU   NEIGHBORS (ATOM LABELS AND CELL INDICES)
   1 SI   4     2.3469     4.4351    2 SI   0 0 0    2 SI   1 0 0    2 SI   0 1 0
                                     2 SI   0 0 1
   1 SI  12     3.8325     7.2424    1 SI  -1 0 0    1 SI   1 0 0    1 SI  -1 0 1
                                     1 SI   1 0-1    1 SI  -1 1 0    1 SI   1-1 0
                                     1 SI   0-1 0    1 SI   0 1 0    1 SI   0-1 1
                                     1 SI   0 1-1    1 SI   0 0-1    1 SI   0 0 1
   1 SI  12     4.4940     8.4925    2 SI   1 0-1    2 SI  -1 0 1    2 SI   1-1 0
                                     2 SI  -1 1 0    2 SI   0 1-1    2 SI   0-1 1
                                     2 SI   1 1-1    2 SI   1-1 1    2 SI  -1 1 1
                                     2 SI   1 1 0    2 SI   1 0 1    2 SI   0 1 1
   1 SI   6     5.4200    10.2423    1 SI  -1-1 1    1 SI   1 1-1    1 SI  -1 1-1
                                     1 SI   1-1 1    1 SI  -1 1 1    1 SI   1-1-1
   1 SI  12     5.9063    11.1613    2 SI  -1 0 0    2 SI   0-1 0    2 SI   0 0-1
                                     2 SI   2 0-1    2 SI   2-1 0    2 SI  -1 0 2
                                     2 SI  -1 2 0    2 SI   0 2-1    2 SI   0-1 2
                                     2 SI   2 0 0    2 SI   0 2 0    2 SI   0 0 2
   1 SI  24     6.6381    12.5442    1 SI  -2 0 1    1 SI   2 0-1    1 SI  -2 1 0
                                     1 SI   2-1 0    1 SI  -2 1 1    1 SI   2-1-1
                                     1 SI  -1-1 0    1 SI   1 1 0    1 SI  -1-1 2
                                     1 SI   1 1-2    1 SI  -1 0-1    1 SI   1 0 1
                                     1 SI  -1 0 2    1 SI   1 0-2    1 SI  -1 2-1
                                     1 SI   1-2 1    1 SI  -1 2 0    1 SI   1-2 0
                                     1 SI   0-2 1    1 SI   0 2-1    1 SI   0-1-1
                                     1 SI   0 1 1    1 SI   0-1 2    1 SI   0 1-2


 THERE ARE NO SYMMETRY ALLOWED DIRECTIONS
 TTTTTTTTTTTTTTTTTTTTTTTTTTTTTT SYMM        TELAPSE        0.06 TCPU        0.06
 TTTTTTTTTTTTTTTTTTTTTTTTTTTTTT INT_SCREEN  TELAPSE        0.06 TCPU        0.06
 TTTTTTTTTTTTTTTTTTTTTTTTTTTTTT INT_CALC    TELAPSE        0.08 TCPU        0.08
 EEEEEEEEEE INT_CALC TERMINATION  DATE 17 09 2024 TIME 13:48:59.4

 *******************************************************************************
 SILICON BULK - BASIS SET 6-21 MODIFIED                                          
 CRYSTAL - SCF - TYPE OF CALCULATION :  RESTRICTED CLOSED SHELL
 *******************************************************************************

 CAPPA:IS1  8;IS2  8;IS3  8; K PTS MONK NET  29; SYMMOPS:K SPACE  48;G SPACE  48

 TTTTTTTTTTTTTTTTTTTTTTTTTTTTTT SDIK        TELAPSE        0.08 TCPU        0.08

 AAAAAAAAAAAAAAAAAAAAAAAAAAAAAAAAAAAAAAAAAAAAAAAAAAAAAAAAAAAAAAAAAAAAAAAAAAAAAAA
         ATOMIC WAVEFUNCTION(S)


 NUCLEAR CHARGE 14.0  SYMMETRY SPECIES            S    P
 N. ELECTRONS   14.0  NUMBER OF PRIMITIVE GTOS   15    9
                      NUMBER OF CONTRACTED GTOS   4    3
                      NUMBER OF CLOSED SHELLS     3    1
                      OPEN SHELL OCCUPATION       0    2

  ZNUC  SCFIT    TOTAL HF ENERGY   KINETIC ENERGY   VIRIAL THEOREM ACCURACY
  14.0    10    -2.888126223E+02  2.888708898E+02 -1.999798292E+00  2.5E-06

 AAAAAAAAAAAAAAAAAAAAAAAAAAAAAAAAAAAAAAAAAAAAAAAAAAAAAAAAAAAAAAAAAAAAAAAAAAAAAAA

 CHARGE NORMALIZATION FACTOR   1.00000000
 TOTAL ATOMIC CHARGES:
  14.0000000  14.0000000
 TTTTTTTTTTTTTTTTTTTTTTTTTTTTTT MOQGAD      TELAPSE        0.09 TCPU        0.09
 TTTTTTTTTTTTTTTTTTTTTTTTTTTTTT SHELLXN     TELAPSE        0.52 TCPU        0.52
 TTTTTTTTTTTTTTTTTTTTTTTTTTTTTT MONMO3      TELAPSE        0.53 TCPU        0.52
 CYC   0 ETOT(AU) -5.784634809079E+02 DETOT -5.78E+02 tst  0.00E+00 PX  1.00E+00
 TTTTTTTTTTTTTTTTTTTTTTTTTTTTTT DIIS        TELAPSE        0.53 TCPU        0.53
 TTTTTTTTTTTTTTTTTTTTTTTTTTTTTT FDIK        TELAPSE        0.53 TCPU        0.53
 INSULATING STATE
 TOP OF VALENCE BANDS -    BAND     14; K    1; EIG -6.5591344E-02 AU
 BOTTOM OF VIRTUAL BANDS - BAND     15; K   18; EIG -2.5883683E-02 AU
 INDIRECT ENERGY BAND GAP:   1.0805 eV
 BOTTOM OF VIRTUAL BANDS - BAND     15; K    1; EIG  5.8059971E-02 AU
 TTTTTTTTTTTTTTTTTTTTTTTTTTTTTT PDIG        TELAPSE        0.55 TCPU        0.55
 CHARGE NORMALIZATION FACTOR   1.00000000
 TOTAL ATOMIC CHARGES:
  14.0000000  14.0000000
 TTTTTTTTTTTTTTTTTTTTTTTTTTTTTT MOQGAD      TELAPSE        0.55 TCPU        0.55
 TTTTTTTTTTTTTTTTTTTTTTTTTTTTTT SHELLXN     TELAPSE        0.98 TCPU        0.98
 TTTTTTTTTTTTTTTTTTTTTTTTTTTTTT MONMO3      TELAPSE        0.99 TCPU        0.98
 CYC   1 ETOT(AU) -5.778137351866E+02 DETOT  6.50E-01 tst  0.00E+00 PX  1.00E+00
 TTTTTTTTTTTTTTTTTTTTTTTTTTTTTT DIIS        TELAPSE        0.99 TCPU        0.98
 DIIS TEST: 0.96048E-03 AT SCF   CYCLE   1 - MIX   30 %
 TTTTTTTTTTTTTTTTTTTTTTTTTTTTTT FDIK        TELAPSE        0.99 TCPU        0.99
 INSULATING STATE
 TOP OF VALENCE BANDS -    BAND     14; K    1; EIG -1.2255086E-01 AU
 BOTTOM OF VIRTUAL BANDS - BAND     15; K   18; EIG  1.3156342E-02 AU
 INDIRECT ENERGY BAND GAP:   3.6928 eV
 BOTTOM OF VIRTUAL BANDS - BAND     15; K    1; EIG  9.1655186E-02 AU
 TTTTTTTTTTTTTTTTTTTTTTTTTTTTTT PDIG        TELAPSE        1.01 TCPU        1.00
 CHARGE NORMALIZATION FACTOR   1.00000000
 TOTAL ATOMIC CHARGES:
  14.0000000  14.0000000
 TTTTTTTTTTTTTTTTTTTTTTTTTTTTTT MOQGAD      TELAPSE        1.01 TCPU        1.00
 TTTTTTTTTTTTTTTTTTTTTTTTTTTTTT SHELLXN     TELAPSE        1.43 TCPU        1.43
 TTTTTTTTTTTTTTTTTTTTTTTTTTTTTT MONMO3      TELAPSE        1.44 TCPU        1.43
 CYC   2 ETOT(AU) -5.778237340671E+02 DETOT -1.00E-02 tst  3.62E-03 PX  5.56E-02
 TTTTTTTTTTTTTTTTTTTTTTTTTTTTTT DIIS        TELAPSE        1.44 TCPU        1.43
 DIIS TEST: 0.15684E-03 AT SCF   CYCLE   2 - DIIS ACTIVE - HISTORY:     2 CYCLES
 TTTTTTTTTTTTTTTTTTTTTTTTTTTTTT FDIK        TELAPSE        1.45 TCPU        1.43
 INSULATING STATE
 TOP OF VALENCE BANDS -    BAND     14; K    1; EIG -1.5150102E-01 AU
 BOTTOM OF VIRTUAL BANDS - BAND     15; K   18; EIG  5.3121166E-02 AU
 INDIRECT ENERGY BAND GAP:   5.5681 eV
 BOTTOM OF VIRTUAL BANDS - BAND     15; K    1; EIG  1.2571115E-01 AU
 TTTTTTTTTTTTTTTTTTTTTTTTTTTTTT PDIG        TELAPSE        1.46 TCPU        1.45
 CHARGE NORMALIZATION FACTOR   1.00000000
 TOTAL ATOMIC CHARGES:
  14.0000000  14.0000000
 TTTTTTTTTTTTTTTTTTTTTTTTTTTTTT MOQGAD      TELAPSE        1.46 TCPU        1.45
 TTTTTTTTTTTTTTTTTTTTTTTTTTTTTT SHELLXN     TELAPSE        1.89 TCPU        1.88
 TTTTTTTTTTTTTTTTTTTTTTTTTTTTTT MONMO3      TELAPSE        1.90 TCPU        1.88
 CYC   3 ETOT(AU) -5.778265943847E+02 DETOT -2.86E-03 tst  2.68E-03 PX  3.20E-02
 TTTTTTTTTTTTTTTTTTTTTTTTTTTTTT DIIS        TELAPSE        1.90 TCPU        1.89
 DIIS TEST: 0.27061E-05 AT SCF   CYCLE   3 - DIIS ACTIVE - HISTORY:     3 CYCLES
 TTTTTTTTTTTTTTTTTTTTTTTTTTTTTT FDIK        TELAPSE        1.90 TCPU        1.89
 INSULATING STATE
 TOP OF VALENCE BANDS -    BAND     14; K    1; EIG -1.5254313E-01 AU
 BOTTOM OF VIRTUAL BANDS - BAND     15; K   18; EIG  5.2872857E-02 AU
 INDIRECT ENERGY BAND GAP:   5.5897 eV
 BOTTOM OF VIRTUAL BANDS - BAND     15; K    1; EIG  1.2535570E-01 AU
 TTTTTTTTTTTTTTTTTTTTTTTTTTTTTT PDIG        TELAPSE        1.92 TCPU        1.90
 CHARGE NORMALIZATION FACTOR   1.00000000
 TOTAL ATOMIC CHARGES:
  14.0000000  14.0000000
 TTTTTTTTTTTTTTTTTTTTTTTTTTTTTT MOQGAD      TELAPSE        1.92 TCPU        1.91
 TTTTTTTTTTTTTTTTTTTTTTTTTTTTTT SHELLXN     TELAPSE        2.35 TCPU        2.33
 TTTTTTTTTTTTTTTTTTTTTTTTTTTTTT MONMO3      TELAPSE        2.35 TCPU        2.33
 CYC   4 ETOT(AU) -5.778266826802E+02 DETOT -8.83E-05 tst  1.05E-05 PX  9.41E-03
 TTTTTTTTTTTTTTTTTTTTTTTTTTTTTT DIIS        TELAPSE        2.35 TCPU        2.34
 DIIS TEST: 0.43358E-06 AT SCF   CYCLE   4 - DIIS ACTIVE - HISTORY:     4 CYCLES
 TTTTTTTTTTTTTTTTTTTTTTTTTTTTTT FDIK        TELAPSE        2.35 TCPU        2.34
 INSULATING STATE
 TOP OF VALENCE BANDS -    BAND     14; K    1; EIG -1.5375879E-01 AU
 BOTTOM OF VIRTUAL BANDS - BAND     15; K   18; EIG  5.3171691E-02 AU
 INDIRECT ENERGY BAND GAP:   5.6309 eV
 BOTTOM OF VIRTUAL BANDS - BAND     15; K    1; EIG  1.2541541E-01 AU
 TTTTTTTTTTTTTTTTTTTTTTTTTTTTTT PDIG        TELAPSE        2.37 TCPU        2.35
 CHARGE NORMALIZATION FACTOR   1.00000000
 TOTAL ATOMIC CHARGES:
  14.0000000  14.0000000
 TTTTTTTTTTTTTTTTTTTTTTTTTTTTTT MOQGAD      TELAPSE        2.37 TCPU        2.36
 TTTTTTTTTTTTTTTTTTTTTTTTTTTTTT SHELLXN     TELAPSE        2.80 TCPU        2.78
 TTTTTTTTTTTTTTTTTTTTTTTTTTTTTT MONMO3      TELAPSE        2.80 TCPU        2.79
 CYC   5 ETOT(AU) -5.778267073664E+02 DETOT -2.47E-05 tst  5.62E-06 PX  4.89E-03
 TTTTTTTTTTTTTTTTTTTTTTTTTTTTTT DIIS        TELAPSE        2.81 TCPU        2.79
 DIIS TEST: 0.10712E-07 AT SCF   CYCLE   5 - DIIS ACTIVE - HISTORY:     5 CYCLES
 TTTTTTTTTTTTTTTTTTTTTTTTTTTTTT FDIK        TELAPSE        2.82 TCPU        2.80
 INSULATING STATE
 TOP OF VALENCE BANDS -    BAND     14; K    1; EIG -1.5404801E-01 AU
 BOTTOM OF VIRTUAL BANDS - BAND     15; K   18; EIG  5.3427874E-02 AU
 INDIRECT ENERGY BAND GAP:   5.6457 eV
 BOTTOM OF VIRTUAL BANDS - BAND     15; K    1; EIG  1.2558898E-01 AU
 TTTTTTTTTTTTTTTTTTTTTTTTTTTTTT PDIG        TELAPSE        2.83 TCPU        2.81
 CHARGE NORMALIZATION FACTOR   1.00000000
 TOTAL ATOMIC CHARGES:
  14.0000000  14.0000000
 TTTTTTTTTTTTTTTTTTTTTTTTTTTTTT MOQGAD      TELAPSE        2.84 TCPU        2.82
 TTTTTTTTTTTTTTTTTTTTTTTTTTTTTT SHELLXN     TELAPSE        3.26 TCPU        3.24
 TTTTTTTTTTTTTTTTTTTTTTTTTTTTTT MONMO3      TELAPSE        3.27 TCPU        3.25
 CYC   6 ETOT(AU) -5.778267077234E+02 DETOT -3.57E-07 tst  4.20E-07 PX  8.93E-04
 TTTTTTTTTTTTTTTTTTTTTTTTTTTTTT DIIS        TELAPSE        3.27 TCPU        3.25
 DIIS TEST: 0.95242E-09 AT SCF   CYCLE   6 - DIIS ACTIVE - HISTORY:     6 CYCLES
 TTTTTTTTTTTTTTTTTTTTTTTTTTTTTT FDIK        TELAPSE        3.27 TCPU        3.25
 INSULATING STATE
 TOP OF VALENCE BANDS -    BAND     14; K    1; EIG -1.5413421E-01 AU
 BOTTOM OF VIRTUAL BANDS - BAND     15; K   18; EIG  5.3398313E-02 AU
 INDIRECT ENERGY BAND GAP:   5.6472 eV
 BOTTOM OF VIRTUAL BANDS - BAND     15; K    1; EIG  1.2555640E-01 AU
 TTTTTTTTTTTTTTTTTTTTTTTTTTTTTT PDIG        TELAPSE        3.29 TCPU        3.26
 CHARGE NORMALIZATION FACTOR   1.00000000
 TOTAL ATOMIC CHARGES:
  14.0000000  14.0000000
 TTTTTTTTTTTTTTTTTTTTTTTTTTTTTT MOQGAD      TELAPSE        3.29 TCPU        3.27
 TTTTTTTTTTTTTTTTTTTTTTTTTTTTTT SHELLXN     TELAPSE        3.71 TCPU        3.69
 +++ ENERGIES IN A.U. +++
 ::: EXT EL-POLE                                  -5.5232185985876E+02
 ::: EXT EL-SPHEROPOLE                             5.6992805861364E+00
 ::: BIELET ZONE E-E                               6.7981395349310E+02
 ::: TOTAL E-E                                     1.3319137422048E+02
 ::: TOTAL E-N + N-E                              -1.1862198483914E+03
 ::: TOTAL N-N                                    -1.0308337123869E+02
 ::: KINETIC ENERGY                                5.7828513716903E+02
 ::: TOTAL   ENERGY                               -5.7782670824061E+02
 ::: VIRIAL COEFFICIENT                            1.0003965264522E+00
 TTTTTTTTTTTTTTTTTTTTTTTTTTTTTT MONMO3      TELAPSE        3.72 TCPU        3.69
 CYC   7 ETOT(AU) -5.778267082406E+02 DETOT -5.17E-07 tst  1.29E-08 PX  8.93E-04

 == SCF ENDED - CONVERGENCE ON ENERGY      E(AU) -5.7782670824061E+02 CYCLES   7

 TOTAL ENERGY(HF)(AU)(   7) -5.7782670824061E+02 DE-5.2E-07 tst 1.3E-08 PX 8.9E-04

 NEIGHBORS OF THE NON-EQUIVALENT ATOMS

 N = NUMBER OF NEIGHBORS AT DISTANCE R
    ATOM  N     R/ANG      R/AU   NEIGHBORS (ATOM LABELS AND CELL INDICES)
   1 SI   4     2.3469     4.4351    2 SI   0 0 0    2 SI   1 0 0    2 SI   0 1 0
                                     2 SI   0 0 1
   1 SI  12     3.8325     7.2424    1 SI  -1 0 0    1 SI   1 0 0    1 SI  -1 0 1
                                     1 SI   1 0-1    1 SI  -1 1 0    1 SI   1-1 0
                                     1 SI   0-1 0    1 SI   0 1 0    1 SI   0-1 1
                                     1 SI   0 1-1    1 SI   0 0-1    1 SI   0 0 1
   1 SI  12     4.4940     8.4925    2 SI   1 0-1    2 SI  -1 0 1    2 SI   1-1 0
                                     2 SI  -1 1 0    2 SI   0 1-1    2 SI   0-1 1
                                     2 SI   1 1-1    2 SI   1-1 1    2 SI  -1 1 1
                                     2 SI   1 1 0    2 SI   1 0 1    2 SI   0 1 1
   1 SI   6     5.4200    10.2423    1 SI  -1-1 1    1 SI   1 1-1    1 SI  -1 1-1
                                     1 SI   1-1 1    1 SI  -1 1 1    1 SI   1-1-1
   1 SI  12     5.9063    11.1613    2 SI  -1 0 0    2 SI   0-1 0    2 SI   0 0-1
                                     2 SI   2 0-1    2 SI   2-1 0    2 SI  -1 0 2
                                     2 SI  -1 2 0    2 SI   0 2-1    2 SI   0-1 2
                                     2 SI   2 0 0    2 SI   0 2 0    2 SI   0 0 2
   1 SI  24     6.6381    12.5442    1 SI  -2 0 1    1 SI   2 0-1    1 SI  -2 1 0
                                     1 SI   2-1 0    1 SI  -2 1 1    1 SI   2-1-1
                                     1 SI  -1-1 0    1 SI   1 1 0    1 SI  -1-1 2
                                     1 SI   1 1-2    1 SI  -1 0-1    1 SI   1 0 1
                                     1 SI  -1 0 2    1 SI   1 0-2    1 SI  -1 2-1
                                     1 SI   1-2 1    1 SI  -1 2 0    1 SI   1-2 0
                                     1 SI   0-2 1    1 SI   0 2-1    1 SI   0-1-1
                                     1 SI   0 1 1    1 SI   0-1 2    1 SI   0 1-2

 TTTTTTTTTTTTTTTTTTTTTTTTTTTTTT AFTER FIRST TELAPSE        3.72 TCPU        3.69
 MMMMMMMMMMMMMMMMMMMMMMMMMMMMMMMMMMMMMMMMMMMMMMMMMMMMMMMMMMMMMMMMMMMMMMMMMMMMMMM
     ALPHA+BETA ELECTRONS
 MULLIKEN POPULATION ANALYSIS - NO. OF ELECTRONS   28.000000

  ATOM    Z CHARGE  A.O. POPULATION

   1 SI  14 14.000  2.000  1.998  1.989  1.989  1.989  0.408  0.454  0.454
                    0.454  1.083  0.394  0.394  0.394
   2 SI  14 14.000  2.000  1.998  1.989  1.989  1.989  0.408  0.454  0.454
                    0.454  1.083  0.394  0.394  0.394

  ATOM    Z CHARGE  SHELL POPULATION

   1 SI  14 14.000  2.000  7.966  1.768  2.266
   2 SI  14 14.000  2.000  7.966  1.768  2.266

 OVERLAP POPULATION CONDENSED TO ATOMS FOR FIRST   6 NEIGHBORS

 ATOM A   1 SI   ATOM B     CELL      R(AB)/AU R(AB)/ANG    OVPOP(AB)
                  2 SI   (  0  0  0)     4.435     2.347     0.274
                  1 SI   ( -1  0  0)     7.242     3.833    -0.022
                  2 SI   (  1  0 -1)     8.492     4.494    -0.000
                  1 SI   ( -1 -1  1)    10.242     5.420    -0.000
                  2 SI   ( -1  0  0)    11.161     5.906     0.001
                  1 SI   ( -2  0  1)    12.544     6.638    -0.000
 EIGENVECTORS IN FORTRAN UNIT 10
 TTTTTTTTTTTTTTTTTTTTTTTTTTTTTT END         TELAPSE        3.72 TCPU        3.70
 EEEEEEEEEE TERMINATION  DATE 17 09 2024 TIME 13:49:03.1
