
         
 *******************************************************************************
 *                                                                             *
 *                               CRYSTAL23                                     *
 *                      public : 1.0.1 - October 2022                          *
 *                       HTTP://WWW.CRYSTAL.UNITO.IT                           *
 *                                                                             *
 *                              MAIN AUTHORS                                   *
 *                                                                             *
 *  R. DOVESI(1,11), V.R. SAUNDERS(2), C. ROETTI(1,11), R. ORLANDO(1,11),      *
 *  C.M. ZICOVICH-WILSON(1,3), F. PASCALE(4), B. CIVALLERI(1,11),              *
 *  K. DOLL(5), N.M. HARRISON(6), I.J. BUSH(7), Ph. D'ARCO(8),                 *
 *  M. LLUNELL(9), M. CAUSA'(10), Y. NOEL(8), L. MASCHIO(1,11), A. ERBA(1,11)  *
 *  M. RE'RAT(14), S. CASASSA(1,11), B.G. SEARLE(2), J.K. DESMARAIS(1)         *
 *                                                                             *
 *        CONTRIBUTIONS TO THE CODE HAVE ALSO BEEN GIVEN BY                    *
 *                                                                             *
 *  M. FERRABONE(1,11), M. DE LA PIERRE(1,11), M. FERRERO(1,11),               *
 *  J. BAIMA(1,11), E. ALBANESE(1,11), M.F. PEINTINGER(12), R. BAST(13),       *
 *  B. KIRTMAN(15), V. LACIVITA(1,11), R. DEMICHELIS(1,16)                     *
 *  G. BRANDEBURG(17), S. SALUSTRO(1,11), G. SANSONE(1,11)                     *
 *  M.T. RUGGIERO(18), L.E. DAGA(1), L. DONA'(1), A. COSSARD(1)                *
 *                                                                             *
 * (1) THEORETICAL CHEMISTRY GROUP - UNIVERSITA' DI TORINO - TORINO (ITALY)    *
 * (2) SCIENTIFIC COMPUTING DEPARTMENT - STFC DARESBURY (UK)                   *
 * (3) UNIVERSIDAD AUTONOMA DEL ESTADO DE MORELOS - CUERNAVACA (MEXICO)        *
 * (4) UNIVERSITE' DE LORRAINE - NANCY (FRANCE)                                *
 * (5) UNIVERSITAET STUTTGART- STUTTGART (GERMANY)                             *
 * (6) IMPERIAL COLLEGE - LONDON (UK)                                          *
 * (7) SCIENTIFIC COMPUTING DEPARTMENT - STFC RAL (UK)                         *
 * (8) UPMC - SORBONNE UNIVERSITES - PARIS (FRANCE)                            *
 * (9) UNIVERSIDAD DE BARCELONA - BARCELONA (SPAIN)                            *
 *(10) UNIVERSITA' DI NAPOLI "FEDERICO II" - NAPOLI (ITALY)                    *
 *(11) NIS - NANOSTRUCTURED INTERFACES AND SURFACES - TORINO (ITALY)           *
 *(12) MPI FUER CHEMISCHE ENERGIEKONVERSION - MUELHEIM AN DER RUHR (GERMANY)   *
 *(13) UNIVERSITY OF TROMSO - TROMSO (NORWAY)                                  *
 *(14) UNIVERSITE' DE PAU ET DES PAYS DE L'ADOUR - PAU (FRANCE)                *
 *(15) UNIVERSITY OF CALIFORNIA SANTA BARBARA - SANTA BARBARA (USA)            *
 *(16) CURTIN UNIVERSITY - PERTH (AUSTRALIA)                                   *
 *(17) UNIVERSITY COLLEGE LONDON - LONDON (UK)                                 *
 *(18) UNIVERSITY OF VERMONT - BURLINGTON (USA)                                *
 *                                                                             *
 *******************************************************************************
 EEEEEEEEEE STARTING  DATE 17 09 2024 TIME 13:50:42.5
 INFORMATION **** SET_MPP **** PCRYSTAL CALCULATION

 *******************************************************************************
 SILICON BULK - BASIS SET 6-21 MODIFIED                                          
 CRYSTAL - PROPERTIES - TYPE OF CALCULATION :  RESTRICTED CLOSED SHELL
 *******************************************************************************
 HARTREE-FOCK HAMILTONIAN

 DIRECT LATTICE VECTOR COMPONENTS (ANGSTROM)
         0.00000    2.71000    2.71000
         2.71000    0.00000    2.71000
         2.71000    2.71000    0.00000

 LATTICE PARAMETERS  (ANGSTROM AND DEGREES) - PRIMITIVE CELL
       A          B          C         ALPHA      BETA     GAMMA        VOLUME
    3.83252    3.83252    3.83252     60.0000   60.0000   60.0000      39.80502
 *******************************************************************************
 N. OF ATOMS PER CELL         2 COULOMB OVERLAP TOL          (T1) 10**   -6
 NUMBER OF SHELLS             8 COULOMB PENETRATION TOL      (T2) 10**   -6
 NUMBER OF AO                26 EXCHANGE OVERLAP TOL         (T3) 10**   -6
 N. OF ELECTRONS PER CELL    28 EXCHANGE PSEUDO OVP (F(G))   (T4) 10**   -6
 CORE ELECTRONS PER CELL     20 EXCHANGE PSEUDO OVP (P(G))   (T5) 10**  -12
 N. OF SYMMETRY OPERATORS    48 POLE ORDER IN MONO ZONE                   4
 *******************************************************************************
   ATOM N.AT.  SHELL    X(A)      Y(A)      Z(A)      EXAD       N.ELECT.
 *******************************************************************************
    1   14 SI    4     0.678     0.678     0.678   1.233E-01      14.000
    2   14 SI    4    -0.677    -0.678    -0.677   1.233E-01      14.000
 *******************************************************************************
 DE(K)                   0.000E+00  ENERGY LEVEL SHIFTING        0.00000
 TOTAL ENERGY -5.7782670824061E+02  CONVERGENCE ON ENER       -5.172E-07
 KIN. ENERGY   5.7828513716903E+02  VIR. COEFF.           1.00039653E+00
 N. OF SCF CYCLES                7  FERMI ENERGY              -0.154E+00
 WEIGHT OF F(I) IN F(I+1)      30
 SHRINK. FACT.(MONKH.)     8  8  8  SHRINKING FACTOR(GILAT NET)        8
 NUMBER OF K POINTS IN THE IBZ  29  CELL VOLUME (A.U.)        268.617607
 *******************************************************************************

 GCALCO - MAX INDICES DIRECT LATTICE VECTOR    14    14    14
 NO.OF VECTORS CREATED 6999 STARS  105 RMAX    76.64647 BOHR
 TTTTTTTTTTTTTTTTTTTTTTTTTTTTTT gordsh1     TELAPSE        0.06 TCPU        0.05

 MATRIX SIZE: P(G)   34546, F(G)    5854, P(G) IRR    1137, F(G) IRR     525
 MAX G-VECTOR INDEX FOR 1- AND 2-ELECTRON INTEGRALS 247


 CAPPA:IS1  8;IS2  8;IS3  8; K PTS MONK NET  29; SYMMOPS:K SPACE  48;G SPACE  48

 CHCHCHCHCHCHCHCHCHCHCHCHCHCHCHCHCHCHCHCHCHCHCHCHCHCHCHCHCHCHCHCHCHCHCHCHCHCH

 ELECTRON CHARGE (AND SPIN) DENSITY - DERIVATIVES UP TO ORDER 0

 CHCHCHCHCHCHCHCHCHCHCHCHCHCHCHCHCHCHCHCHCHCHCHCHCHCHCHCHCHCHCHCHCHCHCHCHCHCH

 CO-ORDINATES IN ANGSTROM

                             POSITION OF THE 3 POINTS:
                     ATOM-LABEL  FRACTIONAL TRANSLATION VECTOR
                   A)    1          1.000     1.000    -1.000
                   B)    1          0.000     0.000     0.000
                   C)    1          0.000     0.000     2.000

 REDEFINITION OF THE WINDOW AS A RECTANGULAR WINDOW
 MARGINS (BOHR):   3.7795   3.7795 ALONG B-C,   3.7795   3.7795 ALONG A-B

                        COORDINATES OF THE 3 POINTS (BOHR):
              A)   -1.392   -1.392   15.302 POINT INDICES (  1,  1)
              B)   -1.392   -1.392   -2.499 POINT INDICES (NPY,  1)
              C)   14.195   14.195   -2.499 POINT INDICES (NPY,NPX)

 N. OF POINTS ALONG THE A-B SEGMENT (NPY)   65
 N. OF POINTS ALONG THE B-C SEGMENT (NPX)   80
 N. OF POINTS IN THE GRID :               5200
 COSINE OF THE ANGLE A-B-C              0.0000
 N. OF ELEMENTS IN THE SYMMETRY SUB-GROUP    8
 N. OF POINTS IN THE IRREDUCIBLE ZONE :   5200


    ALPHA+BETA ELECTRONS DENSITY - VALMIN  2.7036E-03 VALMAX  5.3172E+01

 5200 DATA WRITTEN ON UNIT 25 WITH THE FOLLOWING HEADER
-%-0MAPN   65   80 0.27814E+00 0.27903E+00 0.70561E-16
 TTTTTTTTTTTTTTTTTTTTTTTTTTTTTT ECHG        TELAPSE        2.28 TCPU        2.27

 AAAAAAAAAAAAAAAAAAAAAAAAAAAAAAAAAAAAAAAAAAAAAAAAAAAAAAAAAAAAAAAAAAAAAAAAAAAAAAA
         ATOMIC WAVEFUNCTION(S)


 NUCLEAR CHARGE 14.0  SYMMETRY SPECIES            S    P
 N. ELECTRONS   14.0  NUMBER OF PRIMITIVE GTOS   15    9
                      NUMBER OF CONTRACTED GTOS   4    3
                      NUMBER OF CLOSED SHELLS     3    1
                      OPEN SHELL OCCUPATION       0    2

  ZNUC  SCFIT    TOTAL HF ENERGY   KINETIC ENERGY   VIRIAL THEOREM ACCURACY
  14.0    10    -2.888126223E+02  2.888708898E+02 -1.999798292E+00  2.5E-06

 AAAAAAAAAAAAAAAAAAAAAAAAAAAAAAAAAAAAAAAAAAAAAAAAAAAAAAAAAAAAAAAAAAAAAAAAAAAAAAA


 AAAAAAAAAAAAAAAAAAAAAAAAAAAAAAAAAAAAAAAAAAAAAAAAAAAAAAAAAAAAAAAAAAAAAAAAAAAAAAA
         ATOMIC WAVEFUNCTION(S)


 NUCLEAR CHARGE 14.0  SYMMETRY SPECIES            S    P
 N. ELECTRONS   14.0  NUMBER OF PRIMITIVE GTOS   15    9
                      NUMBER OF CONTRACTED GTOS   4    3
                      NUMBER OF CLOSED SHELLS     3    1
                      OPEN SHELL OCCUPATION       0    2

  ZNUC  SCFIT    TOTAL HF ENERGY   KINETIC ENERGY   VIRIAL THEOREM ACCURACY
  14.0    10    -2.888126223E+02  2.888708898E+02 -1.999798292E+00  2.5E-06

 AAAAAAAAAAAAAAAAAAAAAAAAAAAAAAAAAAAAAAAAAAAAAAAAAAAAAAAAAAAAAAAAAAAAAAAAAAAAAAA

 *******************************************************************************
 DENSITY MATRIX AS SUPERPOSITION OF ATOMIC DENSITIES
 *******************************************************************************
 TTTTTTTTTTTTTTTTTTTTTTTTTTTTTT PATO        TELAPSE        2.28 TCPU        2.27
 CHCHCHCHCHCHCHCHCHCHCHCHCHCHCHCHCHCHCHCHCHCHCHCHCHCHCHCHCHCHCHCHCHCHCHCHCHCH

 ELECTRON CHARGE (AND SPIN) DENSITY - DERIVATIVES UP TO ORDER 0

 CHCHCHCHCHCHCHCHCHCHCHCHCHCHCHCHCHCHCHCHCHCHCHCHCHCHCHCHCHCHCHCHCHCHCHCHCHCH

 CO-ORDINATES IN ANGSTROM

                             POSITION OF THE 3 POINTS:
                     ATOM-LABEL  FRACTIONAL TRANSLATION VECTOR
                   A)    1          1.000     1.000    -1.000
                   B)    1          0.000     0.000     0.000
                   C)    1          0.000     0.000     2.000

 REDEFINITION OF THE WINDOW AS A RECTANGULAR WINDOW
 MARGINS (BOHR):   3.7795   3.7795 ALONG B-C,   3.7795   3.7795 ALONG A-B

                        COORDINATES OF THE 3 POINTS (BOHR):
              A)   -1.392   -1.392   15.302 POINT INDICES (  1,  1)
              B)   -1.392   -1.392   -2.499 POINT INDICES (NPY,  1)
              C)   14.195   14.195   -2.499 POINT INDICES (NPY,NPX)

 N. OF POINTS ALONG THE A-B SEGMENT (NPY)   65
 N. OF POINTS ALONG THE B-C SEGMENT (NPX)   80
 N. OF POINTS IN THE GRID :               5200
 COSINE OF THE ANGLE A-B-C              0.0000
 N. OF ELEMENTS IN THE SYMMETRY SUB-GROUP    8
 N. OF POINTS IN THE IRREDUCIBLE ZONE :   5200


                         DENSITY - VALMIN  4.1523E-03 VALMAX  5.3076E+01

 5200 DATA WRITTEN ON UNIT 25 WITH THE FOLLOWING HEADER
-%-0MAPN   65   80 0.27814E+00 0.27903E+00 0.70561E-16
 TTTTTTTTTTTTTTTTTTTTTTTTTTTTTT ECHG        TELAPSE        4.42 TCPU        4.42
 ENDPROP   
 TTTTTTTTTTTTTTTTTTTTTTTTTTTTTT END         TELAPSE        4.42 TCPU        4.42
 EEEEEEEEEE TERMINATION  DATE 17 09 2024 TIME 13:50:46.9
