
         
 *******************************************************************************
 *                                                                             *
 *                               CRYSTAL23                                     *
 *                      public : 1.0.1 - October 2022                          *
 *                       HTTP://WWW.CRYSTAL.UNITO.IT                           *
 *                                                                             *
 *                              MAIN AUTHORS                                   *
 *                                                                             *
 *  R. DOVESI(1,11), V.R. SAUNDERS(2), C. ROETTI(1,11), R. ORLANDO(1,11),      *
 *  C.M. ZICOVICH-WILSON(1,3), F. PASCALE(4), B. CIVALLERI(1,11),              *
 *  K. DOLL(5), N.M. HARRISON(6), I.J. BUSH(7), Ph. D'ARCO(8),                 *
 *  M. LLUNELL(9), M. CAUSA'(10), Y. NOEL(8), L. MASCHIO(1,11), A. ERBA(1,11)  *
 *  M. RE'RAT(14), S. CASASSA(1,11), B.G. SEARLE(2), J.K. DESMARAIS(1)         *
 *                                                                             *
 *        CONTRIBUTIONS TO THE CODE HAVE ALSO BEEN GIVEN BY                    *
 *                                                                             *
 *  M. FERRABONE(1,11), M. DE LA PIERRE(1,11), M. FERRERO(1,11),               *
 *  J. BAIMA(1,11), E. ALBANESE(1,11), M.F. PEINTINGER(12), R. BAST(13),       *
 *  B. KIRTMAN(15), V. LACIVITA(1,11), R. DEMICHELIS(1,16)                     *
 *  G. BRANDEBURG(17), S. SALUSTRO(1,11), G. SANSONE(1,11)                     *
 *  M.T. RUGGIERO(18), L.E. DAGA(1), L. DONA'(1), A. COSSARD(1)                *
 *                                                                             *
 * (1) THEORETICAL CHEMISTRY GROUP - UNIVERSITA' DI TORINO - TORINO (ITALY)    *
 * (2) SCIENTIFIC COMPUTING DEPARTMENT - STFC DARESBURY (UK)                   *
 * (3) UNIVERSIDAD AUTONOMA DEL ESTADO DE MORELOS - CUERNAVACA (MEXICO)        *
 * (4) UNIVERSITE' DE LORRAINE - NANCY (FRANCE)                                *
 * (5) UNIVERSITAET STUTTGART- STUTTGART (GERMANY)                             *
 * (6) IMPERIAL COLLEGE - LONDON (UK)                                          *
 * (7) SCIENTIFIC COMPUTING DEPARTMENT - STFC RAL (UK)                         *
 * (8) UPMC - SORBONNE UNIVERSITES - PARIS (FRANCE)                            *
 * (9) UNIVERSIDAD DE BARCELONA - BARCELONA (SPAIN)                            *
 *(10) UNIVERSITA' DI NAPOLI "FEDERICO II" - NAPOLI (ITALY)                    *
 *(11) NIS - NANOSTRUCTURED INTERFACES AND SURFACES - TORINO (ITALY)           *
 *(12) MPI FUER CHEMISCHE ENERGIEKONVERSION - MUELHEIM AN DER RUHR (GERMANY)   *
 *(13) UNIVERSITY OF TROMSO - TROMSO (NORWAY)                                  *
 *(14) UNIVERSITE' DE PAU ET DES PAYS DE L'ADOUR - PAU (FRANCE)                *
 *(15) UNIVERSITY OF CALIFORNIA SANTA BARBARA - SANTA BARBARA (USA)            *
 *(16) CURTIN UNIVERSITY - PERTH (AUSTRALIA)                                   *
 *(17) UNIVERSITY COLLEGE LONDON - LONDON (UK)                                 *
 *(18) UNIVERSITY OF VERMONT - BURLINGTON (USA)                                *
 *                                                                             *
 *******************************************************************************
 EEEEEEEEEE STARTING  DATE 16 09 2024 TIME 11:57:52.9
 UREA MOLECULE BASE 6-21 + POLARIZATION                                          

 MOLECULAR CALCULATION
 POINT  GROUP  N. 15                  :  MM2    OR  C2V  
 CORRESPONDING SPACE GROUP            :  P M M 2         


 NUMBER OF IRREDUCIBLE ATOMS IN THE CONVENTIONAL CELL:    5

 INPUT COORDINATES

 ATOM AT. N.              COORDINATES
   1   6     0.000000000000E+00  0.000000000000E+00  0.000000000000E+00
   2   8     0.000000000000E+00  0.000000000000E+00  1.261401000000E+00
   3   7     0.000000000000E+00  1.148246660340E+00 -6.997900000000E-01
   4   1     0.000000000000E+00  2.026549650100E+00 -2.028170000000E-01
   5   1     0.000000000000E+00  1.134080483080E+00 -1.704975000000E+00

 COORDINATES OF THE EQUIVALENT ATOMS (ANGSTROMS)

 N. ATOM EQUIV AT. N.          X                  Y                  Z

   1   1   1    6 C     0.00000000000E+00  0.00000000000E+00  0.00000000000E+00

   2   2   1    8 O     0.00000000000E+00  0.00000000000E+00  1.26140100000E+00

   3   3   1    7 N     0.00000000000E+00  1.14824666034E+00 -6.99790000000E-01
   4   3   2    7 N     0.00000000000E+00 -1.14824666034E+00 -6.99790000000E-01

   5   4   1    1 H     0.00000000000E+00  2.02654965010E+00 -2.02817000000E-01
   6   4   2    1 H     0.00000000000E+00 -2.02654965010E+00 -2.02817000000E-01

   7   5   1    1 H     0.00000000000E+00  1.13408048308E+00 -1.70497500000E+00
   8   5   2    1 H     0.00000000000E+00 -1.13408048308E+00 -1.70497500000E+00

 NUMBER OF SYMMETRY OPERATORS         :    4
 *******************************************************************************
 * GEOMETRY EDITING - INPUT COORDINATES ARE GIVEN IN ANGSTROM         
 *******************************************************************************

 GEOMETRY NOW FULLY CONSISTENT WITH THE GROUP
 *******************************************************************************
 ATOMS IN THE ASYMMETRIC UNIT    5 - ATOMS IN THE UNIT CELL:    8
     ATOM             X(ANGSTROM)         Y(ANGSTROM)         Z(ANGSTROM)
 *******************************************************************************
      1 T   6 C     0.000000000000E+00  0.000000000000E+00  0.000000000000E+00
      2 T   8 O     0.000000000000E+00  0.000000000000E+00  1.261401000000E+00
      3 T   7 N     0.000000000000E+00  1.148246660340E+00 -6.997900000000E-01
      4 F   7 N     0.000000000000E+00 -1.148246660340E+00 -6.997900000000E-01
      5 T   1 H     0.000000000000E+00  2.026549650100E+00 -2.028170000000E-01
      6 F   1 H     0.000000000000E+00 -2.026549650100E+00 -2.028170000000E-01
      7 T   1 H     0.000000000000E+00  1.134080483080E+00 -1.704975000000E+00
      8 F   1 H     0.000000000000E+00 -1.134080483080E+00 -1.704975000000E+00

 T = ATOM BELONGING TO THE ASYMMETRIC UNIT

 GEOMETRY FOR WAVE FUNCTION - DIMENSIONALITY OF THE SYSTEM    0
 (NON PERIODIC DIRECTION: LATTICE PARAMETER FORMALLY SET TO 500)
 *******************************************************************************
 ATOMS IN THE ASYMMETRIC UNIT    5 - ATOMS IN THE UNIT CELL:    8
     ATOM             X(ANGSTROM)         Y(ANGSTROM)         Z(ANGSTROM)
 *******************************************************************************
      1 T   6 C     0.000000000000E+00  0.000000000000E+00  0.000000000000E+00
      2 T   8 O     0.000000000000E+00  0.000000000000E+00  1.261401000000E+00
      3 T   7 N     0.000000000000E+00  1.148246660340E+00 -6.997900000000E-01
      4 F   7 N     0.000000000000E+00 -1.148246660340E+00 -6.997900000000E-01
      5 T   1 H     0.000000000000E+00  2.026549650100E+00 -2.028170000000E-01
      6 F   1 H     0.000000000000E+00 -2.026549650100E+00 -2.028170000000E-01
      7 T   1 H     0.000000000000E+00  1.134080483080E+00 -1.704975000000E+00
      8 F   1 H     0.000000000000E+00 -1.134080483080E+00 -1.704975000000E+00

 T = ATOM BELONGING TO THE ASYMMETRIC UNIT

 ****    4 SYMMOPS - TRANSLATORS IN FRACTIONAL UNITS
 **** MATRICES AND TRANSLATORS IN THE CRYSTALLOGRAPHIC REFERENCE FRAME
   V INV                    ROTATION MATRICES                   TRANSLATORS
   1   1  1.00  0.00  0.00  0.00  1.00  0.00  0.00  0.00  1.00  0.00  0.00  0.00
   2   2 -1.00  0.00  0.00  0.00 -1.00  0.00  0.00  0.00  1.00  0.00  0.00  0.00
   3   3 -1.00  0.00  0.00  0.00  1.00  0.00  0.00  0.00  1.00  0.00  0.00  0.00
   4   4  1.00  0.00  0.00  0.00 -1.00  0.00  0.00  0.00  1.00  0.00  0.00  0.00
 WARNING **** CRYSTA **** TESTGEOM  DIRECTIVE - GEOMETRY EDITING COMPLETE
 TTTTTTTTTTTTTTTTTTTTTTTTTTTTTT END         TELAPSE        0.05 TCPU        0.05
 EEEEEEEEEE TERMINATION  DATE 16 09 2024 TIME 11:57:52.9
