
         
 *******************************************************************************
 *                                                                             *
 *                               CRYSTAL17                                     *
 *                      public : 1.0.2 - March 1st, 2018                       *
 *                       HTTP://WWW.CRYSTAL.UNITO.IT                           *
 *                                                                             *
 *                              MAIN AUTHORS                                   *
 *                                                                             *
 *  R. DOVESI(1,11), V.R. SAUNDERS(2), C. ROETTI(1,11), R. ORLANDO(1,11),      *
 *  C.M. ZICOVICH-WILSON(1,3), F. PASCALE(4), B. CIVALLERI(1,11),              *
 *  K. DOLL(5), N.M. HARRISON(2,6), I.J. BUSH(7), Ph. D'ARCO(8),               *
 *  M. LLUNELL(9), M. CAUSA'(10), Y. NOEL(8), L. MASCHIO(1,11), A. ERBA(1,11)  *
 *  M. RE'RAT(14), S. CASASSA(1,11)                                            *
 *                                                                             *
 *        CONTRIBUTIONS TO THE CODE HAVE ALSO BEEN GIVEN BY                    *
 *                                                                             *
 *  M. FERRABONE(1,11), M. DE LA PIERRE(1,11), M. FERRERO(1,11),               *
 *  J. BAIMA(1,11), E. ALBANESE(1,11), M.F. PEINTINGER(12), R. BAST(13),       *
 *  B. KIRTMAN(15), V. LACIVITA(1,11), R. DEMICHELIS(1,16)                     *
 *  G. BRANDEBURG(17), S. SALUSTRO(1,11), G. SANSONE(1,11)                     *
 *  M.T. RUGGIERO(18)                                                          *
 *                                                                             *
 * (1) THEORETICAL CHEMISTRY GROUP - UNIVERSITA' DI TORINO - TORINO (ITALY)    *
 * (2) COMPUTATIONAL SCIENCE & ENGINEERING DEPARTMENT - STFC DARESBURY (UK)    *
 * (3) UNIVERSIDAD AUTONOMA DEL ESTADO DE MORELOS - CUERNAVACA (MEXICO)        *
 * (4) UNIVERSITE' DE LORRAINE - NANCY (FRANCE)                                *
 * (5) UNIVERSITAET STUTTGART- STUTTGART (GERMANY)                             *
 * (6) IMPERIAL COLLEGE - LONDON (UK)                                          *
 * (7) OXFORD E-RESEARCH CENTRE - OXFORD (UK)                                  *
 * (8) UPMC - SORBONNE UNIVERSITES - PARIS (FRANCE)                            *
 * (9) UNIVERSIDAD DE BARCELONA - BARCELONA (SPAIN)                            *
 *(10) UNIVERSITA' DI NAPOLI "FEDERICO II" - NAPOLI (ITALY)                    *
 *(11) NIS - NANOSTRUCTURED INTERFACES AND SURFACES - TORINO (ITALY)           *
 *(12) MPI FUER CHEMISCHE ENERGIEKONVERSION - MUELHEIM AN DER RUHR (GERMANY)   *
 *(13) UNIVERSITY OF TROMSO - TROMSO (NORWAY)                                  *
 *(14) UNIVERSITE' DE PAU ET DES PAYS DE L'ADOUR - PAU (FRANCE)                *
 *(15) UNIVERSITY OF CALIFORNIA SANTA BARBARA - SANTA BARBARA (USA)            *
 *(16) CURTIN UNIVERSITY - PERTH (AUSTRALIA)                                   *
 *(17) UNIVERSITY COLLEGE LONDON - LONDON (UK)                                 *
 *(18) CAMBRIDGE UNIVERSITY - CAMBRIDGE (UK)                                   *
 *                                                                             *
 *******************************************************************************
 EEEEEEEEEE STARTING  DATE 24 09 2020 TIME 14:07:10.7
 UREA MOLECULE BASE 6-21 + POLARIZATION                                          

 MOLECULAR CALCULATION
 POINT  GROUP  N. 15                  :  MM2    OR  C2V  
 CORRESPONDING SPACE GROUP            :  P M M 2         


 NUMBER OF IRREDUCIBLE ATOMS IN THE CONVENTIONAL CELL:    5

 INPUT COORDINATES

 ATOM AT. N.              COORDINATES
   1   6     0.000000000000E+00  0.000000000000E+00  0.000000000000E+00
   2   8     0.000000000000E+00  0.000000000000E+00  1.261401000000E+00
   3   7     0.000000000000E+00  1.148246660340E+00 -6.997900000000E-01
   4   1     0.000000000000E+00  2.026549650100E+00 -2.028170000000E-01
   5   1     0.000000000000E+00  1.134080483080E+00 -1.704975000000E+00

 COORDINATES OF THE EQUIVALENT ATOMS (ANGSTROMS)

 N. ATOM EQUIV AT. N.          X                  Y                  Z

   1   1   1    6 C     0.00000000000E+00  0.00000000000E+00  0.00000000000E+00

   2   2   1    8 O     0.00000000000E+00  0.00000000000E+00  1.26140100000E+00

   3   3   1    7 N     0.00000000000E+00  1.14824666034E+00 -6.99790000000E-01
   4   3   2    7 N     0.00000000000E+00 -1.14824666034E+00 -6.99790000000E-01

   5   4   1    1 H     0.00000000000E+00  2.02654965010E+00 -2.02817000000E-01
   6   4   2    1 H     0.00000000000E+00 -2.02654965010E+00 -2.02817000000E-01

   7   5   1    1 H     0.00000000000E+00  1.13408048308E+00 -1.70497500000E+00
   8   5   2    1 H     0.00000000000E+00 -1.13408048308E+00 -1.70497500000E+00

 NUMBER OF SYMMETRY OPERATORS         :    4
 *******************************************************************************
 * GEOMETRY EDITING - INPUT COORDINATES ARE GIVEN IN ANGSTROM         
 *******************************************************************************

 GEOMETRY NOW FULLY CONSISTENT WITH THE GROUP
 INFORMATION **** NEW DEFAULT **** FINALRUN 4 FOR GEOMETRY OPTIMIZATIONS
 INFORMATION **** NEW DEFAULT **** OPTGEOM OPTIMIZES BOTH ATOMIC COORDINATES AND CELL PARAMETERS
 INFORMATION **** NEW DEFAULT **** TOL. ON ATOMIC DISP TO REDEFINE REF. GEOMETRY: 0.8 Angs
 INFORMATION **** NEW DEFAULT **** N POINTS TO REDEFINE REF. GEOMETRY: N OF OPT DEGS OF FREEDOM
 INFORMATION **** NEW DEFAULT **** TOL. ON ENERGY TO REDEFINE REF. GEOMETRY: 10**-3*(5*N. ATOMS)

 IMPORTANT INFORMATION:
 THE COORDINATE SYSTEM ADOPTED IN THE OPTIMIZATION IS NOT IN
 GENERAL HOMOGENEOUS UNITS. FOR THIS REASON THE GRADIENT AND 
 HESSIAN MATRIX IN TERMS OF THIS SYSTEM ARE GIVEN WITHOUT
 UNITS. FOR MORE DETAILS SEE THE MANUAL.

 *******************************************************************************
 ATOMIC POSITIONS OPTIMIZATION CONTROL

 INITIAL TRUST RADIUS         0.50000 MAXIMUM TRUST RADIUS               4.00000
 MAXIMUM GRADIENT COMPONENT   0.00045 MAXIMUM DISPLACEMENT COMPONENT     0.00180
 R.M.S. OF GRADIENT COMPONENT 0.00030 R.M.S. OF DISPLACEMENT COMPONENTS  0.00120
 THRESHOLD ON ENERGY CHANGE 0.100E-06 EXTRAPOLATING POLYNOMIAL ORDER           2
 MAXIMUM ALLOWED NUMBER OF STEPS   -1 SORTING OF ENERGY POINTS:               NO
 ANALYTICAL  GRADIENT                 HESSIAN UPDATING                      BFGS
 STEP SIZE NUMERICAL GRADIENT 0.00100
 INITIAL HESSIAN MATRIX: SCHLEGEL MODEL 2
 *******************************************************************************


 GEOMETRY FOR WAVE FUNCTION - DIMENSIONALITY OF THE SYSTEM    0
 (NON PERIODIC DIRECTION: LATTICE PARAMETER FORMALLY SET TO 500)
 *******************************************************************************
 ATOMS IN THE ASYMMETRIC UNIT    5 - ATOMS IN THE UNIT CELL:    8
     ATOM             X(ANGSTROM)         Y(ANGSTROM)         Z(ANGSTROM)
 *******************************************************************************
      1 T   6 C     0.000000000000E+00  0.000000000000E+00  0.000000000000E+00
      2 T   8 O     0.000000000000E+00  0.000000000000E+00  1.261401000000E+00
      3 T   7 N     0.000000000000E+00  1.148246660340E+00 -6.997900000000E-01
      4 F   7 N     0.000000000000E+00 -1.148246660340E+00 -6.997900000000E-01
      5 T   1 H     0.000000000000E+00  2.026549650100E+00 -2.028170000000E-01
      6 F   1 H     0.000000000000E+00 -2.026549650100E+00 -2.028170000000E-01
      7 T   1 H     0.000000000000E+00  1.134080483080E+00 -1.704975000000E+00
      8 F   1 H     0.000000000000E+00 -1.134080483080E+00 -1.704975000000E+00

 T = ATOM BELONGING TO THE ASYMMETRIC UNIT

 ****    4 SYMMOPS - TRANSLATORS IN FRACTIONAL UNITS
 **** MATRICES AND TRANSLATORS IN THE CRYSTALLOGRAPHIC REFERENCE FRAME
   V INV                    ROTATION MATRICES                   TRANSLATORS
   1   1  1.00  0.00  0.00  0.00  1.00  0.00  0.00  0.00  1.00  0.00  0.00  0.00
   2   2 -1.00  0.00  0.00  0.00 -1.00  0.00  0.00  0.00  1.00  0.00  0.00  0.00
   3   3 -1.00  0.00  0.00  0.00  1.00  0.00  0.00  0.00  1.00  0.00  0.00  0.00
   4   4  1.00  0.00  0.00  0.00 -1.00  0.00  0.00  0.00  1.00  0.00  0.00  0.00

 *******************************************************************************
 LOCAL ATOMIC FUNCTIONS BASIS SET
 *******************************************************************************
   ATOM   X(AU)   Y(AU)   Z(AU)  N. TYPE  EXPONENT  S COEF   P COEF   D/F/G COEF
 *******************************************************************************
   1 C    0.000   0.000   0.000
                                  1 S  
                                         3.048E+03 1.826E-03 0.000E+00 0.000E+00
                                         4.564E+02 1.406E-02 0.000E+00 0.000E+00
                                         1.037E+02 6.876E-02 0.000E+00 0.000E+00
                                         2.923E+01 2.304E-01 0.000E+00 0.000E+00
                                         9.349E+00 4.685E-01 0.000E+00 0.000E+00
                                         3.189E+00 3.628E-01 0.000E+00 0.000E+00
                           2-     5 SP 
                                         3.665E+00-3.959E-01 2.365E-01 0.000E+00
                                         7.705E-01 1.216E+00 8.606E-01 0.000E+00
                           6-     9 SP 
                                         1.959E-01 1.000E+00 1.000E+00 0.000E+00
                          10-    14 D  
                                         8.000E-01 0.000E+00 0.000E+00 1.000E+00
   2 O    0.000   0.000   2.384
                                 15 S  
                                         5.472E+03 1.832E-03 0.000E+00 0.000E+00
                                         8.178E+02 1.410E-02 0.000E+00 0.000E+00
                                         1.864E+02 6.863E-02 0.000E+00 0.000E+00
                                         5.302E+01 2.294E-01 0.000E+00 0.000E+00
                                         1.718E+01 4.664E-01 0.000E+00 0.000E+00
                                         5.912E+00 3.642E-01 0.000E+00 0.000E+00
                          16-    19 SP 
                                         7.403E+00-4.045E-01 2.446E-01 0.000E+00
                                         1.576E+00 1.222E+00 8.540E-01 0.000E+00
                          20-    23 SP 
                                         3.737E-01 1.000E+00 1.000E+00 0.000E+00
                          24-    28 D  
                                         8.000E-01 0.000E+00 0.000E+00 1.000E+00
   3 N    0.000   2.170  -1.322
                                 29 S  
                                         4.150E+03 1.845E-03 0.000E+00 0.000E+00
                                         6.201E+02 1.416E-02 0.000E+00 0.000E+00
                                         1.417E+02 6.863E-02 0.000E+00 0.000E+00
                                         4.034E+01 2.286E-01 0.000E+00 0.000E+00
                                         1.303E+01 4.662E-01 0.000E+00 0.000E+00
                                         4.470E+00 3.657E-01 0.000E+00 0.000E+00
                          30-    33 SP 
                                         5.425E+00-4.133E-01 2.380E-01 0.000E+00
                                         1.149E+00 1.224E+00 8.590E-01 0.000E+00
                          34-    37 SP 
                                         2.832E-01 1.000E+00 1.000E+00 0.000E+00
                          38-    42 D  
                                         8.000E-01 0.000E+00 0.000E+00 1.000E+00
   4 N    0.000  -2.170  -1.322
   5 H    0.000   3.830  -0.383
                                 57 S  
                                         5.447E+00 1.563E-01 0.000E+00 0.000E+00
                                         8.245E-01 9.047E-01 0.000E+00 0.000E+00
                                 58 S  
                                         1.832E-01 1.000E+00 0.000E+00 0.000E+00
                          59-    61 P  
                                         1.100E+00 0.000E+00 1.000E+00 0.000E+00
   6 H    0.000  -3.830  -0.383
   7 H    0.000   2.143  -3.222
   8 H    0.000  -2.143  -3.222
 INFORMATION **** SET_MPP **** PCRYSTAL CALCULATION
 INFORMATION **** READM2 **** NEW DEFAULT: FOCK/KS MATRIX MIXING SET TO 30 %
 INFORMATION **** READM2 **** NEW DEFAULT: FULL DIRECT SCF MODE
 INFORMATION **** READM2 **** NEW DEFAULT: COULOMB BIPOLAR BUFFER SET TO 32 Mb
 INFORMATION **** READM2 **** NEW DEFAULT: EXCHANGE BIPOLAR BUFFER SET TO 32 Mb

 *******************************************************************************
 NEW DEFAULT: DFT INTEGRATION GRID INCREASED TO XLGRID
 NEW DEFAULT: DIIS ACCELERATOR ACTIVE
 USE KEYWORD NODIIS TO TURN IT OFF
 *******************************************************************************

 INFORMATION **** PPAN ****  MULLIKEN POPULATION ANALYSIS AT THE END OF SCF
 *******************************************************************************
 N. OF ATOMS PER CELL         8  COULOMB OVERLAP TOL         (T1) 10**   -6
 NUMBER OF SHELLS            28  COULOMB PENETRATION TOL     (T2) 10**   -6
 NUMBER OF AO                76  EXCHANGE OVERLAP TOL        (T3) 10**   -6
 N. OF ELECTRONS PER CELL    32  EXCHANGE PSEUDO OVP (F(G))  (T4) 10**   -6
 CORE ELECTRONS PER CELL      8  EXCHANGE PSEUDO OVP (P(G))  (T5) 10**  -12
 N. OF SYMMETRY OPERATORS     4  POLE ORDER IN MONO ZONE                  4
 *******************************************************************************
 TYPE OF CALCULATION :  RESTRICTED CLOSED SHELL
 KOHN-SHAM HAMILTONIAN

 (EXCHANGE)[CORRELATION] FUNCTIONAL:(BECKE 88)[LEE-YANG-PARR]

 NON-LOCAL WEIGHTING FACTOR (EXCHANGE) =           0.9000
 NON-LOCAL WEIGHTING FACTOR [CORRELATION] =        0.8100

 HYBRID EXCHANGE - PERCENTAGE OF FOCK EXCHANGE    20.0000

 CAPPA:IS1  1;IS2  1;IS3  1; K PTS MONK NET   1; SYMMOPS:K SPACE   8;G SPACE   4

 *******************************************************************************
 MAX NUMBER OF SCF CYCLES      50  CONVERGENCE ON DELTAP        10**-16
 WEIGHT OF F(I) IN F(I+1)      30% CONVERGENCE ON ENERGY        10**- 7

 DISK SPACE FOR EIGENVECTORS (FTN 10)        5776 REALS

 SYMMETRY ADAPTION OF THE BLOCH FUNCTIONS ENABLED
 TTTTTTTTTTTTTTTTTTTTTTTTTTTTTT gordsh1     TELAPSE        0.00 TCPU        0.00

 MATRIX SIZE: P(G)    5716, F(G)    2651, P(G) IRR    1758, F(G) IRR    1635
 MAX G-VECTOR INDEX FOR 1- AND 2-ELECTRON INTEGRALS   1

 TTTTTTTTTTTTTTTTTTTTTTTTTTTTTT INPUT       TELAPSE        0.00 TCPU        0.00

 NEIGHBORS OF THE NON-EQUIVALENT ATOMS

 N = NUMBER OF NEIGHBORS AT DISTANCE R
    ATOM  N     R/ANG      R/AU   NEIGHBORS (ATOM LABELS AND CELL INDICES)
   1 C    1     1.2614     2.3837    2 O    0 0 0
   1 C    2     1.3447     2.5411    3 N    0 0 0    4 N    0 0 0
   1 C    2     2.0367     3.8488    5 H    0 0 0    6 H    0 0 0
   1 C    2     2.0477     3.8696    7 H    0 0 0    8 H    0 0 0

   2 O    1     1.2614     2.3837    1 C    0 0 0
   2 O    2     2.2726     4.2946    3 N    0 0 0    4 N    0 0 0
   2 O    2     2.5002     4.7246    5 H    0 0 0    6 H    0 0 0
   2 O    2     3.1758     6.0013    7 H    0 0 0    8 H    0 0 0

   3 N    1     1.0053     1.8997    7 H    0 0 0
   3 N    1     1.0092     1.9070    5 H    0 0 0
   3 N    1     1.3447     2.5411    1 C    0 0 0
   3 N    1     2.2726     4.2946    2 O    0 0 0
   3 N    1     2.2965     4.3397    4 N    0 0 0
   3 N    1     2.4939     4.7127    8 H    0 0 0

   5 H    1     1.0092     1.9070    3 N    0 0 0
   5 H    1     1.7473     3.3019    7 H    0 0 0
   5 H    1     2.0367     3.8488    1 C    0 0 0
   5 H    1     2.5002     4.7246    2 O    0 0 0
   5 H    1     3.2135     6.0726    4 N    0 0 0
   5 H    1     3.4994     6.6130    8 H    0 0 0

   7 H    1     1.0053     1.8997    3 N    0 0 0
   7 H    1     1.7473     3.3019    5 H    0 0 0
   7 H    1     2.0477     3.8696    1 C    0 0 0
   7 H    1     2.2682     4.2862    8 H    0 0 0
   7 H    1     2.4939     4.7127    4 N    0 0 0
   7 H    1     3.1758     6.0013    2 O    0 0 0


 SYMMETRY ALLOWED INTERNAL DEGREE(S) OF FREEDOM:   7
 TTTTTTTTTTTTTTTTTTTTTTTTTTTTTT SYMM        TELAPSE        0.00 TCPU        0.00
 TTTTTTTTTTTTTTTTTTTTTTTTTTTTTT INT_SCREEN  TELAPSE        0.00 TCPU        0.00

 *******************************************************************************
 *                             OPTIMIZATION STARTS                             *
 *******************************************************************************
 RECLASIFICATION OF INDICES FOR INTEGRAL CALC ACCORDING TO DIFFERENT CRITERIA:
           FIXDELTE                  FIXDELTX              FIXDELTN
          0.10000000               0.80000000                 10
 DEFAULT MAX NUM OF POINTS  100
 *******************************************************************************

 *******************************************************************************
 COORDINATE OPTIMIZATION - POINT    1
 INFORMATION **** EXCBUF **** EXCH. BIPO BUFFER: WORDS USED =       53874

 DFT PARAMETERS

     ATOM       ELECTRONS   NET CHARGE   R(ANGSTROM)
   1   6  C       6.0000      0.0000     0.77000000
   2   8  O       8.0000      0.0000     0.74000000
   3   7  N       7.0000      0.0000     0.74000000
   5   1  H       1.0000      0.0000     1.11000000

 SIZE OF GRID=      71007
 TTTTTTTTTTTTTTTTTTTTTTTTTTTTTT MAKE_GRID2  TELAPSE        0.12 TCPU        0.12
 BECKE WEIGHT FUNCTION
 RADSAFE =     2.00
 TOLERANCES - DENSITY:10**- 6; POTENTIAL:10**- 9; GRID WGT:10**-14

 RADIAL INTEGRATION  - INTERVALS (POINTS,UPPER LIMIT):            1( 75,  4.0*R)

 ANGULAR INTEGRATION - INTERVALS (ACCURACY LEVEL [N. POINTS] UPPER LIMIT):
  1(  4[  86]   0.2)  2(  8[ 194]   0.5)  3( 12[ 350]   0.9)  4( 16[ 974]   3.5)
  5( 12[ 350]9999.0)
 TTTTTTTTTTTTTTTTTTTTTTTTTTTTTT INT_CALC    TELAPSE        0.12 TCPU        0.12

 *******************************************************************************
 UREA MOLECULE BASE 6-21 + POLARIZATION                                          
 CRYSTAL - SCF - TYPE OF CALCULATION :  RESTRICTED CLOSED SHELL
 *******************************************************************************

 CAPPA:IS1  1;IS2  1;IS3  1; K PTS MONK NET   1; SYMMOPS:K SPACE   8;G SPACE   4

 TTTTTTTTTTTTTTTTTTTTTTTTTTTTTT SDIK        TELAPSE        0.12 TCPU        0.12

 AAAAAAAAAAAAAAAAAAAAAAAAAAAAAAAAAAAAAAAAAAAAAAAAAAAAAAAAAAAAAAAAAAAAAAAAAAAAAAA
         ATOMIC WAVEFUNCTION(S)


 NUCLEAR CHARGE  6.0  SYMMETRY SPECIES            S    P
 N. ELECTRONS    6.0  NUMBER OF PRIMITIVE GTOS    9    3
                      NUMBER OF CONTRACTED GTOS   3    2
                      NUMBER OF CLOSED SHELLS     2    0
                      OPEN SHELL OCCUPATION       0    2

  ZNUC SCFIT  TOTAL HF ENERGY   KINETIC ENERGY   VIRIAL THEOREM ACCURACY
   6.0   9   -3.765831823E+01  3.765320062E+01 -2.000135914E+00  1.5E-06

 NUCLEAR CHARGE  8.0  SYMMETRY SPECIES            S    P
 N. ELECTRONS    8.0  NUMBER OF PRIMITIVE GTOS    9    3
                      NUMBER OF CONTRACTED GTOS   3    2
                      NUMBER OF CLOSED SHELLS     2    0
                      OPEN SHELL OCCUPATION       0    4

  ZNUC SCFIT  TOTAL HF ENERGY   KINETIC ENERGY   VIRIAL THEOREM ACCURACY
   8.0  10   -7.469910437E+01  7.469021188E+01 -2.000119058E+00  4.4E-06

 NUCLEAR CHARGE  7.0  SYMMETRY SPECIES            S    P
 N. ELECTRONS    7.0  NUMBER OF PRIMITIVE GTOS    9    3
                      NUMBER OF CONTRACTED GTOS   3    2
                      NUMBER OF CLOSED SHELLS     2    0
                      OPEN SHELL OCCUPATION       0    3

  ZNUC SCFIT  TOTAL HF ENERGY   KINETIC ENERGY   VIRIAL THEOREM ACCURACY
   7.0   8   -5.434075198E+01  5.432977783E+01 -2.000201992E+00  3.0E-06

 NUCLEAR CHARGE  1.0  SYMMETRY SPECIES            S
 N. ELECTRONS    1.0  NUMBER OF PRIMITIVE GTOS    3
                      NUMBER OF CONTRACTED GTOS   2
                      NUMBER OF CLOSED SHELLS     0
                      OPEN SHELL OCCUPATION       1

  ZNUC SCFIT  TOTAL HF ENERGY   KINETIC ENERGY   VIRIAL THEOREM ACCURACY
   1.0   1   -4.961986360E-01  5.144743151E-01 -1.964476984E+00  0.0E+00

 AAAAAAAAAAAAAAAAAAAAAAAAAAAAAAAAAAAAAAAAAAAAAAAAAAAAAAAAAAAAAAAAAAAAAAAAAAAAAAA

 CHARGE NORMALIZATION FACTOR   1.00000000
 TOTAL ATOMIC CHARGES:
   6.0000000   8.0000000   7.0000000   7.0000000   1.0000000   1.0000000
   1.0000000   1.0000000
 TTTTTTTTTTTTTTTTTTTTTTTTTTTTTT MOQGAD      TELAPSE        0.12 TCPU        0.12
 TTTTTTTTTTTTTTTTTTTTTTTTTTTTTT SHELLXN     TELAPSE        0.47 TCPU        0.47
 TTTTTTTTTTTTTTTTTTTTTTTTTTTTTT MONMO3      TELAPSE        0.47 TCPU        0.47
 NUMERICALLY INTEGRATED DENSITY     31.9999938881
 TTTTTTTTTTTTTTTTTTTTTTTTTTTTTT NUMDFT      TELAPSE        0.67 TCPU        0.67
 CYC   0 ETOT(AU) -2.257385440995E+02 DETOT -2.26E+02 tst  0.00E+00 PX  1.00E+00
 TTTTTTTTTTTTTTTTTTTTTTTTTTTTTT DIIS        TELAPSE        0.67 TCPU        0.67
 TTTTTTTTTTTTTTTTTTTTTTTTTTTTTT FDIK        TELAPSE        0.97 TCPU        0.68
 INSULATING STATE
 TOP OF VALENCE BANDS -    BAND     16; K    1; EIG -3.1069257E-01 AU
 BOTTOM OF VIRTUAL BANDS - BAND     17; K    1; EIG -2.1937615E-03 AU
 DIRECT ENERGY BAND GAP:   8.3947 eV
 TTTTTTTTTTTTTTTTTTTTTTTTTTTTTT PDIG        TELAPSE        0.97 TCPU        0.68
 CHARGE NORMALIZATION FACTOR   1.00000000
 TOTAL ATOMIC CHARGES:
   4.6925673   9.0246800   7.8069507   7.8069507   0.6664507   0.6664507
   0.6679749   0.6679749
 TTTTTTTTTTTTTTTTTTTTTTTTTTTTTT MOQGAD      TELAPSE        0.97 TCPU        0.68
 TTTTTTTTTTTTTTTTTTTTTTTTTTTTTT SHELLXN     TELAPSE        1.34 TCPU        1.04
 TTTTTTTTTTTTTTTTTTTTTTTTTTTTTT MONMO3      TELAPSE        1.34 TCPU        1.05
 NUMERICALLY INTEGRATED DENSITY     31.9999979721
 TTTTTTTTTTTTTTTTTTTTTTTTTTTTTT NUMDFT      TELAPSE        1.64 TCPU        1.35
 CYC   1 ETOT(AU) -2.247892796201E+02 DETOT  9.49E-01 tst  0.00E+00 PX  1.00E+00
 TTTTTTTTTTTTTTTTTTTTTTTTTTTTTT DIIS        TELAPSE        1.71 TCPU        1.35
 DIIS TEST: 0.58047E+00 AT SCF   CYCLE   1 - MIX   30 %
 TTTTTTTTTTTTTTTTTTTTTTTTTTTTTT FDIK        TELAPSE        1.71 TCPU        1.36
 INSULATING STATE
 TOP OF VALENCE BANDS -    BAND     16; K    1; EIG -1.1407877E-01 AU
 BOTTOM OF VIRTUAL BANDS - BAND     17; K    1; EIG  7.9819209E-02 AU
 DIRECT ENERGY BAND GAP:   5.2762 eV
 TTTTTTTTTTTTTTTTTTTTTTTTTTTTTT PDIG        TELAPSE        1.71 TCPU        1.36
 CHARGE NORMALIZATION FACTOR   1.00000000
 TOTAL ATOMIC CHARGES:
   5.5679348   8.1071158   7.5079763   7.5079763   0.7995488   0.7995488
   0.8549496   0.8549496
 TTTTTTTTTTTTTTTTTTTTTTTTTTTTTT MOQGAD      TELAPSE        1.72 TCPU        1.37
 TTTTTTTTTTTTTTTTTTTTTTTTTTTTTT SHELLXN     TELAPSE        2.10 TCPU        1.74
 TTTTTTTTTTTTTTTTTTTTTTTTTTTTTT MONMO3      TELAPSE        2.10 TCPU        1.74
 NUMERICALLY INTEGRATED DENSITY     31.9999957960
 TTTTTTTTTTTTTTTTTTTTTTTTTTTTTT NUMDFT      TELAPSE        2.40 TCPU        2.05
 CYC   2 ETOT(AU) -2.248289684156E+02 DETOT -3.97E-02 tst  9.56E-03 PX  2.23E-01
 TTTTTTTTTTTTTTTTTTTTTTTTTTTTTT DIIS        TELAPSE        2.41 TCPU        2.05
 DIIS TEST: 0.44450E+00 AT SCF   CYCLE   2 - DIIS ACTIVE - HISTORY:     2 CYCLES
 TTTTTTTTTTTTTTTTTTTTTTTTTTTTTT FDIK        TELAPSE        2.41 TCPU        2.05
 INSULATING STATE
 TOP OF VALENCE BANDS -    BAND     16; K    1; EIG -2.0289597E-01 AU
 BOTTOM OF VIRTUAL BANDS - BAND     17; K    1; EIG  1.0087889E-01 AU
 DIRECT ENERGY BAND GAP:   8.2661 eV
 TTTTTTTTTTTTTTTTTTTTTTTTTTTTTT PDIG        TELAPSE        2.41 TCPU        2.05
 CHARGE NORMALIZATION FACTOR   1.00000000
 TOTAL ATOMIC CHARGES:
   5.0498749   8.7273528   7.4422708   7.4422708   0.8180774   0.8180774
   0.8510379   0.8510379
 TTTTTTTTTTTTTTTTTTTTTTTTTTTTTT MOQGAD      TELAPSE        2.41 TCPU        2.05
 TTTTTTTTTTTTTTTTTTTTTTTTTTTTTT SHELLXN     TELAPSE        2.77 TCPU        2.41
 TTTTTTTTTTTTTTTTTTTTTTTTTTTTTT MONMO3      TELAPSE        2.77 TCPU        2.41
 NUMERICALLY INTEGRATED DENSITY     31.9999969820
 TTTTTTTTTTTTTTTTTTTTTTTTTTTTTT NUMDFT      TELAPSE        3.07 TCPU        2.72
 CYC   3 ETOT(AU) -2.249085659782E+02 DETOT -7.96E-02 tst  8.97E-03 PX  1.50E-01
 TTTTTTTTTTTTTTTTTTTTTTTTTTTTTT DIIS        TELAPSE        3.08 TCPU        2.72
 DIIS TEST: 0.80962E-01 AT SCF   CYCLE   3 - DIIS ACTIVE - HISTORY:     3 CYCLES
 TTTTTTTTTTTTTTTTTTTTTTTTTTTTTT FDIK        TELAPSE        3.08 TCPU        2.72
 INSULATING STATE
 TOP OF VALENCE BANDS -    BAND     16; K    1; EIG -1.9554812E-01 AU
 BOTTOM OF VIRTUAL BANDS - BAND     17; K    1; EIG  8.7978219E-02 AU
 DIRECT ENERGY BAND GAP:   7.7151 eV
 TTTTTTTTTTTTTTTTTTTTTTTTTTTTTT PDIG        TELAPSE        3.08 TCPU        2.72
 CHARGE NORMALIZATION FACTOR   1.00000000
 TOTAL ATOMIC CHARGES:
   5.0998740   8.5726494   7.5725415   7.5725415   0.7773749   0.7773749
   0.8138219   0.8138219
 TTTTTTTTTTTTTTTTTTTTTTTTTTTTTT MOQGAD      TELAPSE        3.08 TCPU        2.72
 TTTTTTTTTTTTTTTTTTTTTTTTTTTTTT SHELLXN     TELAPSE        3.44 TCPU        3.08
 TTTTTTTTTTTTTTTTTTTTTTTTTTTTTT MONMO3      TELAPSE        3.44 TCPU        3.09
 NUMERICALLY INTEGRATED DENSITY     31.9999968651
 TTTTTTTTTTTTTTTTTTTTTTTTTTTTTT NUMDFT      TELAPSE        3.75 TCPU        3.39
 CYC   4 ETOT(AU) -2.249246956789E+02 DETOT -1.61E-02 tst  8.51E-04 PX  4.84E-02
 TTTTTTTTTTTTTTTTTTTTTTTTTTTTTT DIIS        TELAPSE        3.75 TCPU        3.39
 DIIS TEST: 0.10844E-02 AT SCF   CYCLE   4 - DIIS ACTIVE - HISTORY:     4 CYCLES
 TTTTTTTTTTTTTTTTTTTTTTTTTTTTTT FDIK        TELAPSE        3.75 TCPU        3.39
 INSULATING STATE
 TOP OF VALENCE BANDS -    BAND     16; K    1; EIG -2.0294287E-01 AU
 BOTTOM OF VIRTUAL BANDS - BAND     17; K    1; EIG  9.0116191E-02 AU
 DIRECT ENERGY BAND GAP:   7.9745 eV
 TTTTTTTTTTTTTTTTTTTTTTTTTTTTTT PDIG        TELAPSE        3.75 TCPU        3.39
 CHARGE NORMALIZATION FACTOR   1.00000000
 TOTAL ATOMIC CHARGES:
   5.1135461   8.5909956   7.5546402   7.5546402   0.7792286   0.7792286
   0.8138603   0.8138603
 TTTTTTTTTTTTTTTTTTTTTTTTTTTTTT MOQGAD      TELAPSE        3.75 TCPU        3.39
 TTTTTTTTTTTTTTTTTTTTTTTTTTTTTT SHELLXN     TELAPSE        4.11 TCPU        3.75
 TTTTTTTTTTTTTTTTTTTTTTTTTTTTTT MONMO3      TELAPSE        4.11 TCPU        3.75
 NUMERICALLY INTEGRATED DENSITY     31.9999968977
 TTTTTTTTTTTTTTTTTTTTTTTTTTTTTT NUMDFT      TELAPSE        4.42 TCPU        4.06
 CYC   5 ETOT(AU) -2.249249140237E+02 DETOT -2.18E-04 tst  1.91E-05 PX  9.79E-03
 TTTTTTTTTTTTTTTTTTTTTTTTTTTTTT DIIS        TELAPSE        4.42 TCPU        4.06
 DIIS TEST: 0.17286E-03 AT SCF   CYCLE   5 - DIIS ACTIVE - HISTORY:     5 CYCLES
 TTTTTTTTTTTTTTTTTTTTTTTTTTTTTT FDIK        TELAPSE        4.42 TCPU        4.06
 INSULATING STATE
 TOP OF VALENCE BANDS -    BAND     16; K    1; EIG -2.0082044E-01 AU
 BOTTOM OF VIRTUAL BANDS - BAND     17; K    1; EIG  8.9985625E-02 AU
 DIRECT ENERGY BAND GAP:   7.9132 eV
 TTTTTTTTTTTTTTTTTTTTTTTTTTTTTT PDIG        TELAPSE        4.42 TCPU        4.06
 CHARGE NORMALIZATION FACTOR   1.00000000
 TOTAL ATOMIC CHARGES:
   5.1070677   8.5878758   7.5581556   7.5581556   0.7796251   0.7796251
   0.8147476   0.8147476
 TTTTTTTTTTTTTTTTTTTTTTTTTTTTTT MOQGAD      TELAPSE        4.42 TCPU        4.07
 TTTTTTTTTTTTTTTTTTTTTTTTTTTTTT SHELLXN     TELAPSE        4.78 TCPU        4.42
 TTTTTTTTTTTTTTTTTTTTTTTTTTTTTT MONMO3      TELAPSE        4.78 TCPU        4.43
 NUMERICALLY INTEGRATED DENSITY     31.9999968889
 TTTTTTTTTTTTTTTTTTTTTTTTTTTTTT NUMDFT      TELAPSE        5.09 TCPU        4.73
 CYC   6 ETOT(AU) -2.249249507862E+02 DETOT -3.68E-05 tst  1.33E-06 PX  1.63E-03
 TTTTTTTTTTTTTTTTTTTTTTTTTTTTTT DIIS        TELAPSE        5.09 TCPU        4.73
 DIIS TEST: 0.67335E-06 AT SCF   CYCLE   6 - DIIS ACTIVE - HISTORY:     6 CYCLES
 TTTTTTTTTTTTTTTTTTTTTTTTTTTTTT FDIK        TELAPSE        5.09 TCPU        4.73
 INSULATING STATE
 TOP OF VALENCE BANDS -    BAND     16; K    1; EIG -2.0097738E-01 AU
 BOTTOM OF VIRTUAL BANDS - BAND     17; K    1; EIG  8.9959496E-02 AU
 DIRECT ENERGY BAND GAP:   7.9168 eV
 TTTTTTTTTTTTTTTTTTTTTTTTTTTTTT PDIG        TELAPSE        5.09 TCPU        4.73
 CHARGE NORMALIZATION FACTOR   1.00000000
 TOTAL ATOMIC CHARGES:
   5.1067544   8.5881818   7.5581477   7.5581477   0.7796212   0.7796212
   0.8147630   0.8147630
 TTTTTTTTTTTTTTTTTTTTTTTTTTTTTT MOQGAD      TELAPSE        5.09 TCPU        4.73
 TTTTTTTTTTTTTTTTTTTTTTTTTTTTTT SHELLXN     TELAPSE        5.45 TCPU        5.10
 TTTTTTTTTTTTTTTTTTTTTTTTTTTTTT MONMO3      TELAPSE        5.46 TCPU        5.10
 NUMERICALLY INTEGRATED DENSITY     31.9999968892
 TTTTTTTTTTTTTTTTTTTTTTTTTTTTTT NUMDFT      TELAPSE        5.76 TCPU        5.40
 CYC   7 ETOT(AU) -2.249249509296E+02 DETOT -1.43E-07 tst  5.55E-09 PX  1.78E-04
 TTTTTTTTTTTTTTTTTTTTTTTTTTTTTT DIIS        TELAPSE        5.76 TCPU        5.40
 DIIS TEST: 0.94023E-08 AT SCF   CYCLE   7 - DIIS ACTIVE - HISTORY:     7 CYCLES
 TTTTTTTTTTTTTTTTTTTTTTTTTTTTTT FDIK        TELAPSE        5.76 TCPU        5.41
 INSULATING STATE
 TOP OF VALENCE BANDS -    BAND     16; K    1; EIG -2.0098242E-01 AU
 BOTTOM OF VIRTUAL BANDS - BAND     17; K    1; EIG  8.9968918E-02 AU
 DIRECT ENERGY BAND GAP:   7.9172 eV
 TTTTTTTTTTTTTTTTTTTTTTTTTTTTTT PDIG        TELAPSE        5.76 TCPU        5.41
 CHARGE NORMALIZATION FACTOR   1.00000000
 TOTAL ATOMIC CHARGES:
   5.1067789   8.5881924   7.5581222   7.5581222   0.7796360   0.7796360
   0.8147561   0.8147561
 TTTTTTTTTTTTTTTTTTTTTTTTTTTTTT MOQGAD      TELAPSE        5.77 TCPU        5.41
 TTTTTTTTTTTTTTTTTTTTTTTTTTTTTT SHELLXN     TELAPSE        6.12 TCPU        5.77
 TTTTTTTTTTTTTTTTTTTTTTTTTTTTTT MONMO3      TELAPSE        6.13 TCPU        5.77
 NUMERICALLY INTEGRATED DENSITY     31.9999968892
 TTTTTTTTTTTTTTTTTTTTTTTTTTTTTT NUMDFT      TELAPSE        6.43 TCPU        6.07
 CYC   8 ETOT(AU) -2.249249509325E+02 DETOT -2.93E-09 tst  1.05E-10 PX  3.72E-05
 TTTTTTTTTTTTTTTTTTTTTTTTTTTTTT DIIS        TELAPSE        6.43 TCPU        6.08
 DIIS TEST: 0.40461E-09 AT SCF   CYCLE   8 - DIIS ACTIVE - HISTORY:     8 CYCLES
 TTTTTTTTTTTTTTTTTTTTTTTTTTTTTT FDIK        TELAPSE        6.43 TCPU        6.08
 INSULATING STATE
 TOP OF VALENCE BANDS -    BAND     16; K    1; EIG -2.0098419E-01 AU
 BOTTOM OF VIRTUAL BANDS - BAND     17; K    1; EIG  8.9967349E-02 AU
 DIRECT ENERGY BAND GAP:   7.9172 eV
 TTTTTTTTTTTTTTTTTTTTTTTTTTTTTT PDIG        TELAPSE        6.43 TCPU        6.08
 CHARGE NORMALIZATION FACTOR   1.00000000
 TOTAL ATOMIC CHARGES:
   5.1067852   8.5881940   7.5581184   7.5581184   0.7796341   0.7796341
   0.8147579   0.8147579
 TTTTTTTTTTTTTTTTTTTTTTTTTTTTTT MOQGAD      TELAPSE        6.44 TCPU        6.08
 TTTTTTTTTTTTTTTTTTTTTTTTTTTTTT SHELLXN     TELAPSE        6.80 TCPU        6.44

 ::: DIPOLE MOMENT ALONG NON PERIODIC DIRECTIONS:
 ::: A.U.     (X)  0.00000E+00   (Y)  0.00000E+00   (Z)  1.64490E+00
 ::: DEBYE         0.00000E+00        0.00000E+00       -4.18092E+00

 +++ ENERGIES IN A.U. +++
 ::: EXT EL-POLE                                   1.1365958317521E+01
 ::: EXT EL-SPHEROPOLE                             0.0000000000000E+00
 ::: BIELET ZONE E-E                               2.1579633345403E+02
 ::: TOTAL E-E                                     2.2716229177155E+02
 ::: TOTAL E-N + N-E                              -7.7627523525197E+02
 ::: TOTAL N-N                                     1.2409421422847E+02
 ::: KINETIC ENERGY                                2.2377424449483E+02
 ::: PSEUDO TOTAL   ENERGY                        -2.0124448475714E+02
 ::: VIRIAL COEFFICIENT                            1.0530088633443E+00
 TTTTTTTTTTTTTTTTTTTTTTTTTTTTTT MONMO3      TELAPSE        6.80 TCPU        6.44
 NUMERICALLY INTEGRATED DENSITY     31.9999968892
 TTTTTTTTTTTTTTTTTTTTTTTTTTTTTT NUMDFT      TELAPSE        7.10 TCPU        6.74
 CYC   9 ETOT(AU) -2.249249509334E+02 DETOT -8.65E-10 tst  3.09E-12 PX  3.72E-05

 == SCF ENDED - CONVERGENCE ON ENERGY      E(AU) -2.2492495093336E+02 CYCLES   9


 ENERGY EXPRESSION=HARTREE+FOCK EXCH*0.20000+(BECKE      EXCH)*0.80000+LYP        CORR


 TOTAL ENERGY(DFT)(AU)(  9) -2.2492495093336E+02 DE-8.6E-10 tester 3.1E-12
 TTTTTTTTTTTTTTTTTTTTTTTTTTTTTT EDFT        TELAPSE        7.10 TCPU        6.74

 *******************************************************************************
 *                             FORCE CALCULATION                               *
 *******************************************************************************

 TTTTTTTTTTTTTTTTTTTTTTTTTTTTTT NUMDFG      TELAPSE        8.34 TCPU        7.98
 INFORMATION **** EXCPOG **** EXCH. BIPO BUFFER LENGTH (WORDS) =      215496
 INFORMATION **** GENPOG **** BIPO BUFFER LENGTH (WORDS) =       35100
 TTTTTTTTTTTTTTTTTTTTTTTTTTTTTT SHELXG      TELAPSE       11.34 TCPU       10.99

 CARTESIAN FORCES IN HARTREE/BOHR (ANALYTICAL)
   ATOM                     X                   Y                   Z
   1   6             0.000000000000E+00  0.000000000000E+00  9.525771139439E-02
   2   8             0.000000000000E+00  0.000000000000E+00 -4.550215377822E-02
   3   7             0.000000000000E+00  1.280471494086E-02 -2.134440167186E-02
   4   7             9.974659986867E-18 -1.280471494086E-02 -2.134440167186E-02
   5   1             0.000000000000E+00 -4.627915627436E-03 -1.748115817499E-04
   6   1             5.881796785734E-18  4.627915627436E-03 -1.748115817499E-04
   7   1             0.000000000000E+00  6.860954031609E-03 -3.358565554004E-03
   8   1             2.602085213965E-18 -6.860954031609E-03 -3.358565554004E-03

 RESULTANT FORCE     1.845854198657E-17 -3.108624468950E-15  9.410250356723E-13

 SYMMETRY ALLOWED FORCES (ANALYTICAL) (DIRECTION, FORCE)

    1  1.0183478E-01    2 -3.4449359E-02    3  1.8108602E-02    4 -2.2606396E-02
    5 -6.5448610E-03    6  3.1837540E-03    7  9.7028542E-03
 TTTTTTTTTTTTTTTTTTTTTTTTTTTTTT TOTGRA      TELAPSE       11.36 TCPU       11.00
 INFORMATION **** opta001 **** GEOMETRY OUTPUT FILE
 CLASSICAL MODEL (SCHLEGEL) USED AS INITIAL HESSIAN MATRIX
 REFERENCE GEOMETRY DEFINED

 MAX GRADIENT      0.101835  THRESHOLD              0.000450 CONVERGED NO
 RMS GRADIENT      0.042331  THRESHOLD              0.000300 CONVERGED NO

 GRADIENT NORM     0.111996  GRADIENT THRESHOLD     0.500000

 EIGENVALUES OF THE ESTIMATED HESSIAN
  0.2331E-01  0.9173E-01  0.2013      0.3346      0.9856       1.252    
   1.697    

 INITIAL TRUST RADIUS    0.5000000000E+00

 PREDICTED ENERGY CHANGE    -0.466E-02

 INITIAL DISPLACEMENTS
  0.067316 -0.003170  0.028102 -0.013437 -0.011931  0.039715  0.136948
 TTTTTTTTTTTTTTTTTTTTTTTTTTTTTT OPTI        TELAPSE       11.36 TCPU       11.00

 OPTOPTOPTOPTOPTOPTOPTOPTOPTOPTOPTOPTOPTOPTOPTOPTOPTOPTOPTOPTOPTOPTOPTOPTOPTOPT

 - INFORMATION ON SCF MOVED TO SCFOUT.LOG
 GEOMETRY OPTIMIZATION INFORMATION STORED IN OPTINFO.DAT

 OPTOPTOPTOPTOPTOPTOPTOPTOPTOPTOPTOPTOPTOPTOPTOPTOPTOPTOPTOPTOPTOPTOPTOPTOPTOPT
 *******************************************************************************
 COORDINATE OPTIMIZATION - POINT    2
 *******************************************************************************
 ATOMS IN THE ASYMMETRIC UNIT    5 - ATOMS IN THE UNIT CELL:    8
     ATOM             X(ANGSTROM)         Y(ANGSTROM)         Z(ANGSTROM)
 *******************************************************************************
      1 T   6 C     0.000000000000E+00 -6.682612748516E-21  3.332141790645E-02
      2 T   8 O     0.000000000000E+00 -2.373867686484E-20  1.255087838881E+00
      3 T   7 N     0.000000000000E+00  1.158762106327E+00 -7.083965049427E-01
      4 F   7 N     0.000000000000E+00 -1.158762106327E+00 -7.083965049427E-01
      5 T   1 H     0.000000000000E+00  2.022085362146E+00 -1.947578003311E-01
      6 F   1 H     0.000000000000E+00 -2.022085362146E+00 -1.947578003311E-01
      7 T   1 H     0.000000000000E+00  1.185324393714E+00 -1.717931823120E+00
      8 F   1 H     0.000000000000E+00 -1.185324393714E+00 -1.717931823120E+00

 T = ATOM BELONGING TO THE ASYMMETRIC UNIT

 TOTAL ENERGY(DFT)(AU)(  7) -2.2493002789217E+02     DE (AU)   -5.077E-03

 UPDATED TRUST RADIUS     0.100E+01

 SYMMETRY ALLOWED FORCES  (COORDINATE, FORCE)

    1  1.1029617E-02    2 -3.3310554E-03    3 -2.3726706E-03    4 -9.1126501E-03
    5  1.8451524E-03    6 -1.7057346E-03    7  5.9158904E-04

 GRADIENT NORM     0.015102  GRADIENT THRESHOLD     0.500000

 EIGENVALUES OF THE ESTIMATED HESSIAN
  0.2382E-01  0.9171E-01  0.1989      0.3358      0.9841       1.293    
   1.485    

 PREDICTED ENERGY CHANGE    -0.949E-04

 MAX GRADIENT      0.011030  THRESHOLD              0.000450 CONVERGED NO
 RMS GRADIENT      0.005708  THRESHOLD              0.000300 CONVERGED NO
 MAX DISPLAC.      0.019322  THRESHOLD              0.001800 CONVERGED NO
 RMS DISPLAC.      0.012201  THRESHOLD              0.001200 CONVERGED NO
 TTTTTTTTTTTTTTTTTTTTTTTTTTTTTT OPTI        TELAPSE       45.25 TCPU       43.36
 *******************************************************************************
 COORDINATE OPTIMIZATION - POINT    3
 *******************************************************************************
 ATOMS IN THE ASYMMETRIC UNIT    5 - ATOMS IN THE UNIT CELL:    8
     ATOM             X(ANGSTROM)         Y(ANGSTROM)         Z(ANGSTROM)
 *******************************************************************************
      1 T   6 C     0.000000000000E+00 -1.754032494500E-21  4.190544307024E-02
      2 T   8 O     0.000000000000E+00 -6.230857924037E-21  1.258840927217E+00
      3 T   7 N     0.000000000000E+00  1.155166457428E+00 -7.103002485133E-01
      4 F   7 N     0.000000000000E+00 -1.155166457428E+00 -7.103002485133E-01
      5 T   1 H     0.000000000000E+00  2.022765924821E+00 -2.003273294263E-01
      6 F   1 H     0.000000000000E+00 -2.022765924821E+00 -2.003273294263E-01
      7 T   1 H     0.000000000000E+00  1.178094409424E+00 -1.716627107204E+00
      8 F   1 H     0.000000000000E+00 -1.178094409424E+00 -1.716627107204E+00

 T = ATOM BELONGING TO THE ASYMMETRIC UNIT

 TOTAL ENERGY(DFT)(AU)(  7) -2.2493011484150E+02     DE (AU)   -8.695E-05

 UPDATED TRUST RADIUS     0.200E+01

 SYMMETRY ALLOWED FORCES  (COORDINATE, FORCE)

    1 -9.5063309E-04    2  8.8641940E-04    3  6.3960285E-04    4  6.4176051E-04
    5  2.5428629E-04    6 -6.0870148E-06    7  4.9341295E-05

 GRADIENT NORM     0.001605  GRADIENT THRESHOLD     0.500000

 EIGENVALUES OF THE ESTIMATED HESSIAN
  0.2365E-01  0.9082E-01  0.1978      0.3367      0.9902       1.303    
   1.601    

 PREDICTED ENERGY CHANGE    -0.244E-05

 MAX GRADIENT      0.000951  THRESHOLD              0.000450 CONVERGED NO
 RMS GRADIENT      0.000607  THRESHOLD              0.000300 CONVERGED NO
 MAX DISPLAC.      0.004322  THRESHOLD              0.001800 CONVERGED NO
 RMS DISPLAC.      0.002248  THRESHOLD              0.001200 CONVERGED NO
 TTTTTTTTTTTTTTTTTTTTTTTTTTTTTT OPTI        TELAPSE       67.71 TCPU       64.82
 *******************************************************************************
 COORDINATE OPTIMIZATION - POINT    4
 *******************************************************************************
 ATOMS IN THE ASYMMETRIC UNIT    5 - ATOMS IN THE UNIT CELL:    8
     ATOM             X(ANGSTROM)         Y(ANGSTROM)         Z(ANGSTROM)
 *******************************************************************************
      1 T   6 C     0.000000000000E+00 -1.985609416383E-21  4.207924607698E-02
      2 T   8 O     0.000000000000E+00 -7.053489718635E-21  1.259741561603E+00
      3 T   7 N     0.000000000000E+00  1.156000089798E+00 -7.100337515453E-01
      4 F   7 N     0.000000000000E+00 -1.156000089798E+00 -7.100337515453E-01
      5 T   1 H     0.000000000000E+00  2.024383265542E+00 -2.012467876561E-01
      6 F   1 H     0.000000000000E+00 -2.024383265542E+00 -2.012467876561E-01
      7 T   1 H     0.000000000000E+00  1.178634057441E+00 -1.716511364639E+00
      8 F   1 H     0.000000000000E+00 -1.178634057441E+00 -1.716511364639E+00

 T = ATOM BELONGING TO THE ASYMMETRIC UNIT

 TOTAL ENERGY(DFT)(AU)(  5) -2.2493011704413E+02     DE (AU)   -2.203E-06

 UPDATED TRUST RADIUS     0.400E+01

 SYMMETRY ALLOWED FORCES  (COORDINATE, FORCE)

    1  9.8295730E-05    2 -3.0591566E-04    3 -1.6841633E-04    4  4.0385774E-04
    5 -2.1078232E-05    6  3.4623567E-05    7 -6.1692317E-06

 GRADIENT NORM     0.000544  GRADIENT THRESHOLD     0.500000

 EIGENVALUES OF THE ESTIMATED HESSIAN
  0.2348E-01  0.8776E-01  0.1986      0.3579       1.096       1.271    
   1.596    

 PREDICTED ENERGY CHANGE    -0.174E-06

 MAX GRADIENT      0.000404  THRESHOLD              0.000450 CONVERGED YES
 RMS GRADIENT      0.000206  THRESHOLD              0.000300 CONVERGED YES
 MAX DISPLAC.      0.001158  THRESHOLD              0.001800 CONVERGED YES
 RMS DISPLAC.      0.000595  THRESHOLD              0.001200 CONVERGED YES

 CONVERGENCE TESTS SATISFIED AFTER   4 ENERGY AND GRADIENT CALCULATIONS
 +++++++++++++++++++++++++++++++++++++++++++++++++++++++++++++++++++++++++++++++
 FINALRUN OPTION: RE-STARTING OPTIMIZATION
 +++++++++++++++++++++++++++++++++++++++++++++++++++++++++++++++++++++++++++++++
 TTTTTTTTTTTTTTTTTTTTTTTTTTTTTT OPTI        TELAPSE       77.38 TCPU       74.47
 *******************************************************************************
 COORDINATE OPTIMIZATION - POINT    5
 *******************************************************************************
 ATOMS IN THE ASYMMETRIC UNIT    5 - ATOMS IN THE UNIT CELL:    8
     ATOM             X(ANGSTROM)         Y(ANGSTROM)         Z(ANGSTROM)
 *******************************************************************************
      1 T   6 C     0.000000000000E+00 -2.167943141291E-21  4.221735629410E-02
      2 T   8 O     0.000000000000E+00 -7.701194671778E-21  1.259701956475E+00
      3 T   7 N     0.000000000000E+00  1.155851051230E+00 -7.098523234040E-01
      4 F   7 N     0.000000000000E+00 -1.155851051230E+00 -7.098523234040E-01
      5 T   1 H     0.000000000000E+00  2.024448989086E+00 -2.015401989397E-01
      6 F   1 H     0.000000000000E+00 -2.024448989086E+00 -2.015401989397E-01
      7 T   1 H     0.000000000000E+00  1.178200786464E+00 -1.716448634041E+00
      8 F   1 H     0.000000000000E+00 -1.178200786464E+00 -1.716448634041E+00

 T = ATOM BELONGING TO THE ASYMMETRIC UNIT

 REFERENCE GEOMETRY WILL BE CHANGED

 TOTAL ENERGY(DFT)(AU)(  3) -2.2493011725099E+02     DE (AU)   -2.069E-07

 SYMMETRY ALLOWED FORCES  (COORDINATE, FORCE)

    1  1.1181393E-05    2  3.9209598E-05    3 -4.7878876E-05    4 -3.7015240E-06
    5  3.7372948E-06    6 -1.6460140E-05    7  7.3416917E-06

 GRADIENT NORM     0.000066  GRADIENT THRESHOLD     0.500000

 HESSIAN UPDATE SKIPPED

 EIGENVALUES OF THE ESTIMATED HESSIAN
  0.2348E-01  0.8776E-01  0.1986      0.3579       1.096       1.271    
   1.596    

 PREDICTED ENERGY CHANGE    -0.175E-07

 MAX GRADIENT      0.000048  THRESHOLD              0.000450 CONVERGED YES
 RMS GRADIENT      0.000025  THRESHOLD              0.000300 CONVERGED YES
 MAX DISPLAC.      0.000661  THRESHOLD              0.001800 CONVERGED YES
 RMS DISPLAC.      0.000386  THRESHOLD              0.001200 CONVERGED YES

 CONVERGENCE TESTS SATISFIED AFTER   5 ENERGY AND GRADIENT CALCULATIONS

 ******************************************************************
 * OPT END - CONVERGED * E(AU):  -2.249301172510E+02  POINTS    5 *
 ******************************************************************

   BAND GAP:                      8.5910  eV 


 NEIGHBORS OF THE NON-EQUIVALENT ATOMS

 N = NUMBER OF NEIGHBORS AT DISTANCE R
    ATOM  N     R/ANG      R/AU   NEIGHBORS (ATOM LABELS AND CELL INDICES)
   1 C    1     1.2175     2.3007    2 O    0 0 0
   1 C    2     1.3790     2.6059    3 N    0 0 0    4 N    0 0 0
   1 C    2     2.0391     3.8533    5 H    0 0 0    6 H    0 0 0
   1 C    2     2.1169     4.0003    7 H    0 0 0    8 H    0 0 0

   2 O    1     1.2175     2.3007    1 C    0 0 0
   2 O    2     2.2837     4.3155    3 N    0 0 0    4 N    0 0 0
   2 O    2     2.4967     4.7181    5 H    0 0 0    6 H    0 0 0
   2 O    2     3.2009     6.0488    7 H    0 0 0    8 H    0 0 0

   3 N    1     1.0064     1.9018    5 H    0 0 0
   3 N    1     1.0068     1.9027    7 H    0 0 0
   3 N    1     1.3790     2.6059    1 C    0 0 0
   3 N    1     2.2837     4.3155    2 O    0 0 0
   3 N    1     2.3117     4.3685    4 N    0 0 0
   3 N    1     2.5419     4.8034    8 H    0 0 0

   5 H    1     1.0064     1.9018    3 N    0 0 0
   5 H    1     1.7352     3.2791    7 H    0 0 0
   5 H    1     2.0391     3.8533    1 C    0 0 0
   5 H    1     2.4967     4.7181    2 O    0 0 0
   5 H    1     3.2207     6.0862    4 N    0 0 0
   5 H    1     3.5429     6.6951    8 H    0 0 0

   7 H    1     1.0068     1.9027    3 N    0 0 0
   7 H    1     1.7352     3.2791    5 H    0 0 0
   7 H    1     2.1169     4.0003    1 C    0 0 0
   7 H    1     2.3564     4.4530    8 H    0 0 0
   7 H    1     2.5419     4.8034    4 N    0 0 0
   7 H    1     3.2009     6.0488    2 O    0 0 0

 TTTTTTTTTTTTTTTTTTTTTTTTTTTTTT AFTER FIRST TELAPSE       86.90 TCPU       83.66
 MMMMMMMMMMMMMMMMMMMMMMMMMMMMMMMMMMMMMMMMMMMMMMMMMMMMMMMMMMMMMMMMMMMMMMMMMMMMMMM
     ALPHA+BETA ELECTRONS
 MULLIKEN POPULATION ANALYSIS - NO. OF ELECTRONS   32.000000

  ATOM    Z CHARGE  A.O. POPULATION

   1 C    6  5.118  1.995  0.402  0.416  0.542  0.608  0.369  0.455  0.158
                    0.039  0.024  0.027  0.058  0.009  0.016
   2 O    8  8.558  1.996  0.434  0.666  0.808  0.654  1.463  0.814  0.929
                    0.760  0.015  0.011  0.009  0.000  0.000
   3 N    7  7.562  1.995  0.373  0.775  0.581  0.573  1.182  1.001  0.541
                    0.522  0.004  0.001  0.005  0.004  0.002
   4 N    7  7.562  1.995  0.373  0.775  0.581  0.573  1.182  1.001  0.541
                    0.522  0.004  0.001  0.005  0.004  0.002
   5 H    1  0.788  0.455  0.299  0.008  0.016  0.008
   6 H    1  0.788  0.455  0.299  0.008  0.016  0.008
   7 H    1  0.812  0.461  0.317  0.009  0.003  0.022
   8 H    1  0.812  0.461  0.317  0.009  0.003  0.022

  ATOM    Z CHARGE  SHELL POPULATION

   1 C    6  5.118  1.995  1.968  1.021  0.134
   2 O    8  8.558  1.996  2.562  3.966  0.034
   3 N    7  7.562  1.995  2.303  3.246  0.018
   4 N    7  7.562  1.995  2.303  3.246  0.018
   5 H    1  0.788  0.455  0.299  0.033
   6 H    1  0.788  0.455  0.299  0.033
   7 H    1  0.812  0.461  0.317  0.034
   8 H    1  0.812  0.461  0.317  0.034

 OVERLAP POPULATION CONDENSED TO ATOMS FOR FIRST   6 NEIGHBORS

 ATOM A   1 C    ATOM B     CELL      R(AB)/AU R(AB)/ANG    OVPOP(AB)
                  2 O    (  0  0  0)     2.301     1.217     0.663
                  3 N    (  0  0  0)     2.606     1.379     0.264
                  5 H    (  0  0  0)     3.853     2.039    -0.027
                  7 H    (  0  0  0)     4.000     2.117    -0.019

 ATOM A   2 O    ATOM B     CELL      R(AB)/AU R(AB)/ANG    OVPOP(AB)
                  1 C    (  0  0  0)     2.301     1.217     0.663
                  3 N    (  0  0  0)     4.316     2.284    -0.056
                  5 H    (  0  0  0)     4.718     2.497     0.003
                  7 H    (  0  0  0)     6.049     3.201     0.002

 ATOM A   3 N    ATOM B     CELL      R(AB)/AU R(AB)/ANG    OVPOP(AB)
                  5 H    (  0  0  0)     1.902     1.006     0.355
                  7 H    (  0  0  0)     1.903     1.007     0.347
                  1 C    (  0  0  0)     2.606     1.379     0.264
                  2 O    (  0  0  0)     4.316     2.284    -0.056
                  4 N    (  0  0  0)     4.368     2.312    -0.076
                  8 H    (  0  0  0)     4.803     2.542     0.001

 ATOM A   5 H    ATOM B     CELL      R(AB)/AU R(AB)/ANG    OVPOP(AB)
                  3 N    (  0  0  0)     1.902     1.006     0.355
                  7 H    (  0  0  0)     3.279     1.735    -0.029
                  1 C    (  0  0  0)     3.853     2.039    -0.027
                  2 O    (  0  0  0)     4.718     2.497     0.003
                  4 N    (  0  0  0)     6.086     3.221     0.004
                  8 H    (  0  0  0)     6.695     3.543    -0.000

 ATOM A   7 H    ATOM B     CELL      R(AB)/AU R(AB)/ANG    OVPOP(AB)
                  3 N    (  0  0  0)     1.903     1.007     0.347
                  5 H    (  0  0  0)     3.279     1.735    -0.029
                  1 C    (  0  0  0)     4.000     2.117    -0.019
                  8 H    (  0  0  0)     4.453     2.356     0.001
                  4 N    (  0  0  0)     4.803     2.542     0.001
                  2 O    (  0  0  0)     6.049     3.201     0.002
 EIGENVECTORS IN FORTRAN UNIT 10

 FINAL OPTIMIZED GEOMETRY - DIMENSIONALITY OF THE SYSTEM      0
 (NON PERIODIC DIRECTION: LATTICE PARAMETER FORMALLY SET TO 500)
 *******************************************************************************
 ATOMS IN THE ASYMMETRIC UNIT    5 - ATOMS IN THE UNIT CELL:    8
     ATOM             X(ANGSTROM)         Y(ANGSTROM)         Z(ANGSTROM)
 *******************************************************************************
      1 T   6 C     0.000000000000E+00 -2.167943141291E-21  4.221735629410E-02
      2 T   8 O     0.000000000000E+00 -7.701194671778E-21  1.259701956475E+00
      3 T   7 N     0.000000000000E+00  1.155851051230E+00 -7.098523234040E-01
      4 F   7 N     0.000000000000E+00 -1.155851051230E+00 -7.098523234040E-01
      5 T   1 H     0.000000000000E+00  2.024448989086E+00 -2.015401989397E-01
      6 F   1 H     0.000000000000E+00 -2.024448989086E+00 -2.015401989397E-01
      7 T   1 H     0.000000000000E+00  1.178200786464E+00 -1.716448634041E+00
      8 F   1 H     0.000000000000E+00 -1.178200786464E+00 -1.716448634041E+00

 T = ATOM BELONGING TO THE ASYMMETRIC UNIT
 INFORMATION **** fort.34 **** GEOMETRY OUTPUT FILE

 ****    4 SYMMOPS - TRANSLATORS IN FRACTIONAL UNITS
 **** MATRICES AND TRANSLATORS IN THE CRYSTALLOGRAPHIC REFERENCE FRAME
   V INV                    ROTATION MATRICES                   TRANSLATORS
   1   1  1.00  0.00  0.00  0.00  1.00  0.00  0.00  0.00  1.00  0.00  0.00  0.00
   2   2 -1.00  0.00  0.00  0.00 -1.00  0.00  0.00  0.00  1.00  0.00  0.00  0.00
   3   3 -1.00  0.00  0.00  0.00  1.00  0.00  0.00  0.00  1.00  0.00  0.00  0.00
   4   4  1.00  0.00  0.00  0.00 -1.00  0.00  0.00  0.00  1.00  0.00  0.00  0.00
 TTTTTTTTTTTTTTTTTTTTTTTTTTTTTT END         TELAPSE       86.90 TCPU       83.67
 EEEEEEEEEE TERMINATION  DATE 24 09 2020 TIME 14:08:37.6
