
         
 *******************************************************************************
 *                                                                             *
 *                               CRYSTAL23                                     *
 *                      public : 1.0.1 - October 2022                          *
 *                       HTTP://WWW.CRYSTAL.UNITO.IT                           *
 *                                                                             *
 *                              MAIN AUTHORS                                   *
 *                                                                             *
 *  R. DOVESI(1,11), V.R. SAUNDERS(2), C. ROETTI(1,11), R. ORLANDO(1,11),      *
 *  C.M. ZICOVICH-WILSON(1,3), F. PASCALE(4), B. CIVALLERI(1,11),              *
 *  K. DOLL(5), N.M. HARRISON(6), I.J. BUSH(7), Ph. D'ARCO(8),                 *
 *  M. LLUNELL(9), M. CAUSA'(10), Y. NOEL(8), L. MASCHIO(1,11), A. ERBA(1,11)  *
 *  M. RE'RAT(14), S. CASASSA(1,11), B.G. SEARLE(2), J.K. DESMARAIS(1)         *
 *                                                                             *
 *        CONTRIBUTIONS TO THE CODE HAVE ALSO BEEN GIVEN BY                    *
 *                                                                             *
 *  M. FERRABONE(1,11), M. DE LA PIERRE(1,11), M. FERRERO(1,11),               *
 *  J. BAIMA(1,11), E. ALBANESE(1,11), M.F. PEINTINGER(12), R. BAST(13),       *
 *  B. KIRTMAN(15), V. LACIVITA(1,11), R. DEMICHELIS(1,16)                     *
 *  G. BRANDEBURG(17), S. SALUSTRO(1,11), G. SANSONE(1,11)                     *
 *  M.T. RUGGIERO(18), L.E. DAGA(1), L. DONA'(1), A. COSSARD(1)                *
 *                                                                             *
 * (1) THEORETICAL CHEMISTRY GROUP - UNIVERSITA' DI TORINO - TORINO (ITALY)    *
 * (2) SCIENTIFIC COMPUTING DEPARTMENT - STFC DARESBURY (UK)                   *
 * (3) UNIVERSIDAD AUTONOMA DEL ESTADO DE MORELOS - CUERNAVACA (MEXICO)        *
 * (4) UNIVERSITE' DE LORRAINE - NANCY (FRANCE)                                *
 * (5) UNIVERSITAET STUTTGART- STUTTGART (GERMANY)                             *
 * (6) IMPERIAL COLLEGE - LONDON (UK)                                          *
 * (7) SCIENTIFIC COMPUTING DEPARTMENT - STFC RAL (UK)                         *
 * (8) UPMC - SORBONNE UNIVERSITES - PARIS (FRANCE)                            *
 * (9) UNIVERSIDAD DE BARCELONA - BARCELONA (SPAIN)                            *
 *(10) UNIVERSITA' DI NAPOLI "FEDERICO II" - NAPOLI (ITALY)                    *
 *(11) NIS - NANOSTRUCTURED INTERFACES AND SURFACES - TORINO (ITALY)           *
 *(12) MPI FUER CHEMISCHE ENERGIEKONVERSION - MUELHEIM AN DER RUHR (GERMANY)   *
 *(13) UNIVERSITY OF TROMSO - TROMSO (NORWAY)                                  *
 *(14) UNIVERSITE' DE PAU ET DES PAYS DE L'ADOUR - PAU (FRANCE)                *
 *(15) UNIVERSITY OF CALIFORNIA SANTA BARBARA - SANTA BARBARA (USA)            *
 *(16) CURTIN UNIVERSITY - PERTH (AUSTRALIA)                                   *
 *(17) UNIVERSITY COLLEGE LONDON - LONDON (UK)                                 *
 *(18) UNIVERSITY OF VERMONT - BURLINGTON (USA)                                *
 *                                                                             *
 *******************************************************************************
 EEEEEEEEEE STARTING  DATE 16 09 2024 TIME 12:07:13.7
 UREA BULK BASE 6-21 + POLARIZATION                                              

 CRYSTAL CALCULATION
 (INPUT ACCORDING TO THE INTERNATIONAL TABLES FOR X-RAY CRYSTALLOGRAPHY)
 CRYSTAL FAMILY                       :  TETRAGONAL  
 CRYSTAL CLASS  (GROTH - 1921)        :  TETRAGONAL SCALENOHEDRAL             

 SPACE GROUP (NONCENTROSYMMETRIC)     :  P -4 21 M       

 LATTICE PARAMETERS  (ANGSTROMS AND DEGREES) - CONVENTIONAL CELL
        A           B           C        ALPHA        BETA       GAMMA
     5.56500     5.56500     4.68400    90.00000    90.00000    90.00000


 NUMBER OF IRREDUCIBLE ATOMS IN THE CONVENTIONAL CELL:    5

 INPUT COORDINATES

 ATOM AT. N.              COORDINATES
   1   6     0.000000000000E+00  5.000000000000E-01  3.260000000000E-01
   2   8     0.000000000000E+00  5.000000000000E-01  5.953000000000E-01
   3   7     1.459000000000E-01  6.459000000000E-01  1.766000000000E-01
   4   1     2.575000000000E-01  7.575000000000E-01  2.827000000000E-01
   5   1     1.441000000000E-01  6.441000000000E-01 -3.800000000000E-02

 *******************************************************************************

 << INFORMATION >>: FROM NOW ON, ALL COORDINATES REFER TO THE PRIMITIVE CELL

 *******************************************************************************

 LATTICE PARAMETERS  (ANGSTROMS AND DEGREES) - PRIMITIVE CELL
       A          B          C        ALPHA      BETA     GAMMA        VOLUME
    5.56500    5.56500    4.68400    90.00000  90.00000  90.00000    145.059850

 COORDINATES OF THE EQUIVALENT ATOMS (FRACTIONAL UNITS)

 N. ATOM EQUIV AT. N.          X                  Y                  Z

   1   1   1    6 C     0.00000000000E+00 -5.00000000000E-01  3.26000000000E-01
   2   1   2    6 C    -5.00000000000E-01  0.00000000000E+00 -3.26000000000E-01

   3   2   1    8 O     0.00000000000E+00 -5.00000000000E-01 -4.04700000000E-01
   4   2   2    8 O    -5.00000000000E-01  0.00000000000E+00  4.04700000000E-01

   5   3   1    7 N     1.45900000000E-01 -3.54100000000E-01  1.76600000000E-01
   6   3   2    7 N    -1.45900000000E-01  3.54100000000E-01  1.76600000000E-01
   7   3   3    7 N    -3.54100000000E-01 -1.45900000000E-01 -1.76600000000E-01
   8   3   4    7 N     3.54100000000E-01  1.45900000000E-01 -1.76600000000E-01

   9   4   1    1 H     2.57500000000E-01 -2.42500000000E-01  2.82700000000E-01
  10   4   2    1 H    -2.57500000000E-01  2.42500000000E-01  2.82700000000E-01
  11   4   3    1 H    -2.42500000000E-01 -2.57500000000E-01 -2.82700000000E-01
  12   4   4    1 H     2.42500000000E-01  2.57500000000E-01 -2.82700000000E-01

  13   5   1    1 H     1.44100000000E-01 -3.55900000000E-01 -3.80000000000E-02
  14   5   2    1 H    -1.44100000000E-01  3.55900000000E-01 -3.80000000000E-02
  15   5   3    1 H    -3.55900000000E-01 -1.44100000000E-01  3.80000000000E-02
  16   5   4    1 H     3.55900000000E-01  1.44100000000E-01  3.80000000000E-02

 NUMBER OF SYMMETRY OPERATORS         :    8
 *******************************************************************************
 * GEOMETRY EDITING - INPUT COORDINATES ARE GIVEN IN ANGSTROM         
 *******************************************************************************

 GEOMETRY NOW FULLY CONSISTENT WITH THE GROUP

 COORDINATES IN ANGSTROM

 GCALCO - MAX INDICES DIRECT LATTICE VECTOR    14    14    16
 NO.OF VECTORS CREATED 6999 STARS  525 RMAX    62.34386 BOHR


 *******************************************************************************
 *  SEARCHING THE MOLECULES OF THE CRYSTAL
 *******************************************************************************

 MOLECULAR FRAGMENT N.    1
 REFERENCE ATOM:    1 IN CELL  0 0 0  COORDINATES    0.000  -2.783   1.527
 FRAGMENT COMPOSITION:
  SEQ.  NO. 
  NEW   OLD    CELL   AT. NO.             COORD.(A)
   1     1    0  0  0    6       0.0000   -2.7825    1.5270
   2     3    0  0  1    8       0.0000   -2.7825    2.7884
   3     5    0  0  0    7       0.8119   -1.9706    0.8272
   4     6    0 -1  0    7      -0.8119   -3.5944    0.8272
   5    13    0  0  0    1       0.8019   -1.9806   -0.1780
   6     9    0  0  0    1       1.4330   -1.3495    1.3242
   7    14    0 -1  0    1      -0.8019   -3.5844   -0.1780
   8    10    0 -1  0    1      -1.4330   -4.2155    1.3242

 MOLECULAR FRAGMENT N.    2
 REFERENCE ATOM:    2 IN CELL  0 0 0  COORDINATES   -2.783   0.000  -1.527
 FRAGMENT COMPOSITION:
  SEQ.  NO. 
  NEW   OLD    CELL   AT. NO.             COORD.(A)
   9     2    0  0  0    6      -2.7825    0.0000   -1.5270
  10     4    0  0 -1    8      -2.7825    0.0000   -2.7884
  11     7    0  0  0    7      -1.9706   -0.8119   -0.8272
  12     8   -1  0  0    7      -3.5944    0.8119   -0.8272
  13    15    0  0  0    1      -1.9806   -0.8019    0.1780
  14    11    0  0  0    1      -1.3495   -1.4330   -1.3242
  15    16   -1  0  0    1      -3.5844    0.8019    0.1780
  16    12   -1  0  0    1      -4.2155    1.4330   -1.3242

 *******************************************************************************


 GCALCO - MAX INDICES DIRECT LATTICE VECTOR    14    14    16
 NO.OF VECTORS CREATED 6999 STARS  525 RMAX   117.81283 BOHR

 STAR N.   2 N. OF VECTORS   2 R=  8.8514772E+00

 STAR N.   3 N. OF VECTORS   4 R=  1.0516326E+01

 *******************************************************************************
 ATOM COORDINATES 
 *******************************************************************************
                    ANGSTROM                               FRACTIONAL
  ATOM       X          Y          Z                X          Y          Z
 *******************************************************************************
   1 C   0.0000E+00 -2.7825E+00  1.5270E+00   0.0000E+00 -5.0000E-01  3.2600E-01
   2 O   0.0000E+00 -2.7825E+00  2.7884E+00   0.0000E+00 -5.0000E-01  5.9530E-01
   3 N   8.1193E-01 -1.9706E+00  8.2719E-01   1.4590E-01 -3.5410E-01  1.7660E-01
   4 N  -8.1193E-01 -3.5944E+00  8.2719E-01  -1.4590E-01 -6.4590E-01  1.7660E-01
   5 H   8.0192E-01 -1.9806E+00 -1.7799E-01   1.4410E-01 -3.5590E-01 -3.8000E-02
   6 H   1.4330E+00 -1.3495E+00  1.3242E+00   2.5750E-01 -2.4250E-01  2.8270E-01
   7 H  -8.0192E-01 -3.5844E+00 -1.7799E-01  -1.4410E-01 -6.4410E-01 -3.8000E-02
   8 H  -1.4330E+00 -4.2155E+00  1.3242E+00  -2.5750E-01 -7.5750E-01  2.8270E-01
   9 C  -2.7825E+00  0.0000E+00 -1.5270E+00  -5.0000E-01  0.0000E+00 -3.2600E-01
  10 O  -2.7825E+00  0.0000E+00 -2.7884E+00  -5.0000E-01  0.0000E+00 -5.9530E-01
  11 N  -1.9706E+00 -8.1193E-01 -8.2719E-01  -3.5410E-01 -1.4590E-01 -1.7660E-01
  12 N  -3.5944E+00  8.1193E-01 -8.2719E-01  -6.4590E-01  1.4590E-01 -1.7660E-01
  13 H  -1.9806E+00 -8.0192E-01  1.7799E-01  -3.5590E-01 -1.4410E-01  3.8000E-02
  14 H  -1.3495E+00 -1.4330E+00 -1.3242E+00  -2.4250E-01 -2.5750E-01 -2.8270E-01
  15 H  -3.5844E+00  8.0192E-01  1.7799E-01  -6.4410E-01  1.4410E-01  3.8000E-02
  16 H  -4.2155E+00  1.4330E+00 -1.3242E+00  -7.5750E-01  2.5750E-01 -2.8270E-01
  17 C   0.0000E+00 -2.7825E+00 -3.1570E+00   0.0000E+00 -5.0000E-01 -6.7400E-01
  18 O   0.0000E+00 -2.7825E+00 -1.8956E+00   0.0000E+00 -5.0000E-01 -4.0470E-01
  19 N   8.1193E-01 -1.9706E+00 -3.8568E+00   1.4590E-01 -3.5410E-01 -8.2340E-01
  20 N  -8.1193E-01 -3.5944E+00 -3.8568E+00  -1.4590E-01 -6.4590E-01 -8.2340E-01
  21 H   8.0192E-01 -1.9806E+00 -4.8620E+00   1.4410E-01 -3.5590E-01 -1.0380E+00
  22 H   1.4330E+00 -1.3495E+00 -3.3598E+00   2.5750E-01 -2.4250E-01 -7.1730E-01
  23 H  -8.0192E-01 -3.5844E+00 -4.8620E+00  -1.4410E-01 -6.4410E-01 -1.0380E+00
  24 H  -1.4330E+00 -4.2155E+00 -3.3598E+00  -2.5750E-01 -7.5750E-01 -7.1730E-01
  25 C  -2.7825E+00  0.0000E+00 -6.2110E+00  -5.0000E-01  0.0000E+00 -1.3260E+00
  26 O  -2.7825E+00  0.0000E+00 -7.4724E+00  -5.0000E-01  0.0000E+00 -1.5953E+00
  27 N  -1.9706E+00 -8.1193E-01 -5.5112E+00  -3.5410E-01 -1.4590E-01 -1.1766E+00
  28 N  -3.5944E+00  8.1193E-01 -5.5112E+00  -6.4590E-01  1.4590E-01 -1.1766E+00
  29 H  -1.9806E+00 -8.0192E-01 -4.5060E+00  -3.5590E-01 -1.4410E-01 -9.6200E-01
  30 H  -1.3495E+00 -1.4330E+00 -6.0082E+00  -2.4250E-01 -2.5750E-01 -1.2827E+00
  31 H  -3.5844E+00  8.0192E-01 -4.5060E+00  -6.4410E-01  1.4410E-01 -9.6200E-01
  32 H  -4.2155E+00  1.4330E+00 -6.0082E+00  -7.5750E-01  2.5750E-01 -1.2827E+00
  33 C   0.0000E+00 -2.7825E+00  6.2110E+00   0.0000E+00 -5.0000E-01  1.3260E+00
  34 O   0.0000E+00 -2.7825E+00  7.4724E+00   0.0000E+00 -5.0000E-01  1.5953E+00
  35 N   8.1193E-01 -1.9706E+00  5.5112E+00   1.4590E-01 -3.5410E-01  1.1766E+00
  36 N  -8.1193E-01 -3.5944E+00  5.5112E+00  -1.4590E-01 -6.4590E-01  1.1766E+00
  37 H   8.0192E-01 -1.9806E+00  4.5060E+00   1.4410E-01 -3.5590E-01  9.6200E-01
  38 H   1.4330E+00 -1.3495E+00  6.0082E+00   2.5750E-01 -2.4250E-01  1.2827E+00
  39 H  -8.0192E-01 -3.5844E+00  4.5060E+00  -1.4410E-01 -6.4410E-01  9.6200E-01
  40 H  -1.4330E+00 -4.2155E+00  6.0082E+00  -2.5750E-01 -7.5750E-01  1.2827E+00
  41 C  -2.7825E+00  0.0000E+00  3.1570E+00  -5.0000E-01  0.0000E+00  6.7400E-01
  42 O  -2.7825E+00  0.0000E+00  1.8956E+00  -5.0000E-01  0.0000E+00  4.0470E-01
  43 N  -1.9706E+00 -8.1193E-01  3.8568E+00  -3.5410E-01 -1.4590E-01  8.2340E-01
  44 N  -3.5944E+00  8.1193E-01  3.8568E+00  -6.4590E-01  1.4590E-01  8.2340E-01
  45 H  -1.9806E+00 -8.0192E-01  4.8620E+00  -3.5590E-01 -1.4410E-01  1.0380E+00
  46 H  -1.3495E+00 -1.4330E+00  3.3598E+00  -2.4250E-01 -2.5750E-01  7.1730E-01
  47 H  -3.5844E+00  8.0192E-01  4.8620E+00  -6.4410E-01  1.4410E-01  1.0380E+00
  48 H  -4.2155E+00  1.4330E+00  3.3598E+00  -7.5750E-01  2.5750E-01  7.1730E-01
  49 C  -5.5650E+00 -2.7825E+00  1.5270E+00  -1.0000E+00 -5.0000E-01  3.2600E-01
  50 O  -5.5650E+00 -2.7825E+00  2.7884E+00  -1.0000E+00 -5.0000E-01  5.9530E-01
  51 N  -4.7531E+00 -1.9706E+00  8.2719E-01  -8.5410E-01 -3.5410E-01  1.7660E-01
  52 N  -6.3769E+00 -3.5944E+00  8.2719E-01  -1.1459E+00 -6.4590E-01  1.7660E-01
  53 H  -4.7631E+00 -1.9806E+00 -1.7799E-01  -8.5590E-01 -3.5590E-01 -3.8000E-02
  54 H  -4.1320E+00 -1.3495E+00  1.3242E+00  -7.4250E-01 -2.4250E-01  2.8270E-01
  55 H  -6.3669E+00 -3.5844E+00 -1.7799E-01  -1.1441E+00 -6.4410E-01 -3.8000E-02
  56 H  -6.9980E+00 -4.2155E+00  1.3242E+00  -1.2575E+00 -7.5750E-01  2.8270E-01
  57 C  -8.3475E+00  0.0000E+00 -1.5270E+00  -1.5000E+00  0.0000E+00 -3.2600E-01
  58 O  -8.3475E+00  0.0000E+00 -2.7884E+00  -1.5000E+00  0.0000E+00 -5.9530E-01
  59 N  -7.5356E+00 -8.1193E-01 -8.2719E-01  -1.3541E+00 -1.4590E-01 -1.7660E-01
  60 N  -9.1594E+00  8.1193E-01 -8.2719E-01  -1.6459E+00  1.4590E-01 -1.7660E-01
  61 H  -7.5456E+00 -8.0192E-01  1.7799E-01  -1.3559E+00 -1.4410E-01  3.8000E-02
  62 H  -6.9145E+00 -1.4330E+00 -1.3242E+00  -1.2425E+00 -2.5750E-01 -2.8270E-01
  63 H  -9.1494E+00  8.0192E-01  1.7799E-01  -1.6441E+00  1.4410E-01  3.8000E-02
  64 H  -9.7805E+00  1.4330E+00 -1.3242E+00  -1.7575E+00  2.5750E-01 -2.8270E-01
  65 C   5.5650E+00 -2.7825E+00  1.5270E+00   1.0000E+00 -5.0000E-01  3.2600E-01
  66 O   5.5650E+00 -2.7825E+00  2.7884E+00   1.0000E+00 -5.0000E-01  5.9530E-01
  67 N   6.3769E+00 -1.9706E+00  8.2719E-01   1.1459E+00 -3.5410E-01  1.7660E-01
  68 N   4.7531E+00 -3.5944E+00  8.2719E-01   8.5410E-01 -6.4590E-01  1.7660E-01
  69 H   6.3669E+00 -1.9806E+00 -1.7799E-01   1.1441E+00 -3.5590E-01 -3.8000E-02
  70 H   6.9980E+00 -1.3495E+00  1.3242E+00   1.2575E+00 -2.4250E-01  2.8270E-01
  71 H   4.7631E+00 -3.5844E+00 -1.7799E-01   8.5590E-01 -6.4410E-01 -3.8000E-02
  72 H   4.1320E+00 -4.2155E+00  1.3242E+00   7.4250E-01 -7.5750E-01  2.8270E-01
  73 C   2.7825E+00  0.0000E+00 -1.5270E+00   5.0000E-01  0.0000E+00 -3.2600E-01
  74 O   2.7825E+00  0.0000E+00 -2.7884E+00   5.0000E-01  0.0000E+00 -5.9530E-01
  75 N   3.5944E+00 -8.1193E-01 -8.2719E-01   6.4590E-01 -1.4590E-01 -1.7660E-01
  76 N   1.9706E+00  8.1193E-01 -8.2719E-01   3.5410E-01  1.4590E-01 -1.7660E-01
  77 H   3.5844E+00 -8.0192E-01  1.7799E-01   6.4410E-01 -1.4410E-01  3.8000E-02
  78 H   4.2155E+00 -1.4330E+00 -1.3242E+00   7.5750E-01 -2.5750E-01 -2.8270E-01
  79 H   1.9806E+00  8.0192E-01  1.7799E-01   3.5590E-01  1.4410E-01  3.8000E-02
  80 H   1.3495E+00  1.4330E+00 -1.3242E+00   2.4250E-01  2.5750E-01 -2.8270E-01
  81 C   0.0000E+00 -8.3475E+00  1.5270E+00   0.0000E+00 -1.5000E+00  3.2600E-01
  82 O   0.0000E+00 -8.3475E+00  2.7884E+00   0.0000E+00 -1.5000E+00  5.9530E-01
  83 N   8.1193E-01 -7.5356E+00  8.2719E-01   1.4590E-01 -1.3541E+00  1.7660E-01
  84 N  -8.1193E-01 -9.1594E+00  8.2719E-01  -1.4590E-01 -1.6459E+00  1.7660E-01
  85 H   8.0192E-01 -7.5456E+00 -1.7799E-01   1.4410E-01 -1.3559E+00 -3.8000E-02
  86 H   1.4330E+00 -6.9145E+00  1.3242E+00   2.5750E-01 -1.2425E+00  2.8270E-01
  87 H  -8.0192E-01 -9.1494E+00 -1.7799E-01  -1.4410E-01 -1.6441E+00 -3.8000E-02
  88 H  -1.4330E+00 -9.7805E+00  1.3242E+00  -2.5750E-01 -1.7575E+00  2.8270E-01
  89 C  -2.7825E+00 -5.5650E+00 -1.5270E+00  -5.0000E-01 -1.0000E+00 -3.2600E-01
  90 O  -2.7825E+00 -5.5650E+00 -2.7884E+00  -5.0000E-01 -1.0000E+00 -5.9530E-01
  91 N  -1.9706E+00 -6.3769E+00 -8.2719E-01  -3.5410E-01 -1.1459E+00 -1.7660E-01
  92 N  -3.5944E+00 -4.7531E+00 -8.2719E-01  -6.4590E-01 -8.5410E-01 -1.7660E-01
  93 H  -1.9806E+00 -6.3669E+00  1.7799E-01  -3.5590E-01 -1.1441E+00  3.8000E-02
  94 H  -1.3495E+00 -6.9980E+00 -1.3242E+00  -2.4250E-01 -1.2575E+00 -2.8270E-01
  95 H  -3.5844E+00 -4.7631E+00  1.7799E-01  -6.4410E-01 -8.5590E-01  3.8000E-02
  96 H  -4.2155E+00 -4.1320E+00 -1.3242E+00  -7.5750E-01 -7.4250E-01 -2.8270E-01
  97 C   0.0000E+00  2.7825E+00  1.5270E+00   0.0000E+00  5.0000E-01  3.2600E-01
  98 O   0.0000E+00  2.7825E+00  2.7884E+00   0.0000E+00  5.0000E-01  5.9530E-01
  99 N   8.1193E-01  3.5944E+00  8.2719E-01   1.4590E-01  6.4590E-01  1.7660E-01
 100 N  -8.1193E-01  1.9706E+00  8.2719E-01  -1.4590E-01  3.5410E-01  1.7660E-01
 101 H   8.0192E-01  3.5844E+00 -1.7799E-01   1.4410E-01  6.4410E-01 -3.8000E-02
 102 H   1.4330E+00  4.2155E+00  1.3242E+00   2.5750E-01  7.5750E-01  2.8270E-01
 103 H  -8.0192E-01  1.9806E+00 -1.7799E-01  -1.4410E-01  3.5590E-01 -3.8000E-02
 104 H  -1.4330E+00  1.3495E+00  1.3242E+00  -2.5750E-01  2.4250E-01  2.8270E-01
 105 C  -2.7825E+00  5.5650E+00 -1.5270E+00  -5.0000E-01  1.0000E+00 -3.2600E-01
 106 O  -2.7825E+00  5.5650E+00 -2.7884E+00  -5.0000E-01  1.0000E+00 -5.9530E-01
 107 N  -1.9706E+00  4.7531E+00 -8.2719E-01  -3.5410E-01  8.5410E-01 -1.7660E-01
 108 N  -3.5944E+00  6.3769E+00 -8.2719E-01  -6.4590E-01  1.1459E+00 -1.7660E-01
 109 H  -1.9806E+00  4.7631E+00  1.7799E-01  -3.5590E-01  8.5590E-01  3.8000E-02
 110 H  -1.3495E+00  4.1320E+00 -1.3242E+00  -2.4250E-01  7.4250E-01 -2.8270E-01
 111 H  -3.5844E+00  6.3669E+00  1.7799E-01  -6.4410E-01  1.1441E+00  3.8000E-02
 112 H  -4.2155E+00  6.9980E+00 -1.3242E+00  -7.5750E-01  1.2575E+00 -2.8270E-01

 GEOMETRY FOR WAVE FUNCTION - DIMENSIONALITY OF THE SYSTEM    3
 (NON PERIODIC DIRECTION: LATTICE PARAMETER FORMALLY SET TO 500)
 *******************************************************************************
 LATTICE PARAMETERS (ANGSTROMS AND DEGREES) - BOHR = 0.5291772083 ANGSTROM
 PRIMITIVE CELL - CENTRING CODE 1/0 VOLUME=   145.059850 - DENSITY  1.374 g/cm^3
         A              B              C           ALPHA      BETA       GAMMA 
     5.56500000     5.56500000     4.68400000    90.000000  90.000000  90.000000
 *******************************************************************************
 ATOMS IN THE ASYMMETRIC UNIT    5 - ATOMS IN THE UNIT CELL:   16
     ATOM                 X/A                 Y/B                 Z/C    
 *******************************************************************************
      1 T   6 C     0.000000000000E+00 -5.000000000000E-01  3.260000000000E-01
      2 T   8 O     0.000000000000E+00 -5.000000000000E-01 -4.047000000000E-01
      3 T   7 N     1.459000000000E-01 -3.541000000000E-01  1.766000000000E-01
      4 F   7 N    -1.459000000000E-01  3.541000000000E-01  1.766000000000E-01
      5 T   1 H     1.441000000000E-01 -3.559000000000E-01 -3.800000000000E-02
      6 T   1 H     2.575000000000E-01 -2.425000000000E-01  2.827000000000E-01
      7 F   1 H    -1.441000000000E-01  3.559000000000E-01 -3.800000000000E-02
      8 F   1 H    -2.575000000000E-01  2.425000000000E-01  2.827000000000E-01
      9 F   6 C     5.000000000000E-01  0.000000000000E+00 -3.260000000000E-01
     10 F   8 O     5.000000000000E-01  0.000000000000E+00  4.047000000000E-01
     11 F   7 N    -3.541000000000E-01 -1.459000000000E-01 -1.766000000000E-01
     12 F   7 N     3.541000000000E-01  1.459000000000E-01 -1.766000000000E-01
     13 F   1 H    -3.559000000000E-01 -1.441000000000E-01  3.800000000000E-02
     14 F   1 H    -2.425000000000E-01 -2.575000000000E-01 -2.827000000000E-01
     15 F   1 H     3.559000000000E-01  1.441000000000E-01  3.800000000000E-02
     16 F   1 H     2.425000000000E-01  2.575000000000E-01 -2.827000000000E-01

 T = ATOM BELONGING TO THE ASYMMETRIC UNIT

 ****    8 SYMMOPS - TRANSLATORS IN FRACTIONAL UNITS
 **** MATRICES AND TRANSLATORS IN THE CRYSTALLOGRAPHIC REFERENCE FRAME
   V INV                    ROTATION MATRICES                   TRANSLATORS
   1   1  1.00  0.00  0.00  0.00  1.00  0.00  0.00  0.00  1.00  0.00  0.00  0.00
   2   2 -1.00  0.00  0.00  0.00 -1.00  0.00  0.00  0.00  1.00  0.00  0.00  0.00
   3   3  1.00  0.00  0.00  0.00 -1.00  0.00  0.00  0.00 -1.00  0.50  0.50  0.00
   4   4 -1.00  0.00  0.00  0.00  1.00  0.00  0.00  0.00 -1.00  0.50  0.50  0.00
   5   5  0.00  1.00  0.00  1.00  0.00  0.00  0.00  0.00  1.00  0.50  0.50  0.00
   6   6  0.00 -1.00  0.00 -1.00  0.00  0.00  0.00  0.00  1.00  0.50  0.50  0.00
   7   8  0.00 -1.00  0.00  1.00  0.00  0.00  0.00  0.00 -1.00  0.00  0.00  0.00
   8   7  0.00  1.00  0.00 -1.00  0.00  0.00  0.00  0.00 -1.00  0.00  0.00  0.00

 DIRECT LATTICE VECTORS CARTESIAN COMPONENTS (ANGSTROM)
          X                    Y                    Z
   0.556500000000E+01   0.000000000000E+00   0.000000000000E+00
   0.000000000000E+00   0.556500000000E+01   0.000000000000E+00
   0.000000000000E+00   0.000000000000E+00   0.468400000000E+01


 CARTESIAN COORDINATES - PRIMITIVE CELL
 *******************************************************************************
 *      ATOM          X(ANGSTROM)         Y(ANGSTROM)         Z(ANGSTROM)
 *******************************************************************************
    1     6 C     0.000000000000E+00 -2.782500000000E+00  1.526984000000E+00
    2     8 O     0.000000000000E+00 -2.782500000000E+00  2.788385200000E+00
    3     7 N     8.119335000000E-01 -1.970566500000E+00  8.271944000000E-01
    4     7 N    -8.119335000000E-01 -3.594433500000E+00  8.271944000000E-01
    5     1 H     8.019165000000E-01 -1.980583500000E+00 -1.779920000000E-01
    6     1 H     1.432987500000E+00 -1.349512500000E+00  1.324166800000E+00
    7     1 H    -8.019165000000E-01 -3.584416500000E+00 -1.779920000000E-01
    8     1 H    -1.432987500000E+00 -4.215487500000E+00  1.324166800000E+00
    9     6 C    -2.782500000000E+00  0.000000000000E+00 -1.526984000000E+00
   10     8 O    -2.782500000000E+00  0.000000000000E+00 -2.788385200000E+00
   11     7 N    -1.970566500000E+00 -8.119335000000E-01 -8.271944000000E-01
   12     7 N    -3.594433500000E+00  8.119335000000E-01 -8.271944000000E-01
   13     1 H    -1.980583500000E+00 -8.019165000000E-01  1.779920000000E-01
   14     1 H    -1.349512500000E+00 -1.432987500000E+00 -1.324166800000E+00
   15     1 H    -3.584416500000E+00  8.019165000000E-01  1.779920000000E-01
   16     1 H    -4.215487500000E+00  1.432987500000E+00 -1.324166800000E+00

 *******************************************************************************
 LOCAL ATOMIC FUNCTIONS BASIS SET
 *******************************************************************************
   ATOM   X(AU)   Y(AU)   Z(AU)  N. TYPE  EXPONENT  S COEF   P COEF   D/F/G COEF
 *******************************************************************************
   1 C    0.000  -5.258   2.886
                                  1 S  
                                         3.048E+03 1.826E-03 0.000E+00 0.000E+00
                                         4.564E+02 1.406E-02 0.000E+00 0.000E+00
                                         1.037E+02 6.876E-02 0.000E+00 0.000E+00
                                         2.923E+01 2.304E-01 0.000E+00 0.000E+00
                                         9.349E+00 4.685E-01 0.000E+00 0.000E+00
                                         3.189E+00 3.628E-01 0.000E+00 0.000E+00
                           2-     5 SP 
                                         3.665E+00-3.959E-01 2.365E-01 0.000E+00
                                         7.705E-01 1.216E+00 8.606E-01 0.000E+00
                           6-     9 SP 
                                         1.959E-01 1.000E+00 1.000E+00 0.000E+00
                          10-    14 D  
                                         8.000E-01 0.000E+00 0.000E+00 1.000E+00
   2 O    0.000  -5.258   5.269
                                 15 S  
                                         5.472E+03 1.832E-03 0.000E+00 0.000E+00
                                         8.178E+02 1.410E-02 0.000E+00 0.000E+00
                                         1.864E+02 6.863E-02 0.000E+00 0.000E+00
                                         5.302E+01 2.294E-01 0.000E+00 0.000E+00
                                         1.718E+01 4.664E-01 0.000E+00 0.000E+00
                                         5.912E+00 3.642E-01 0.000E+00 0.000E+00
                          16-    19 SP 
                                         7.403E+00-4.045E-01 2.446E-01 0.000E+00
                                         1.576E+00 1.222E+00 8.540E-01 0.000E+00
                          20-    23 SP 
                                         3.737E-01 1.000E+00 1.000E+00 0.000E+00
                          24-    28 D  
                                         8.000E-01 0.000E+00 0.000E+00 1.000E+00
   3 N    1.534  -3.724   1.563
                                 29 S  
                                         4.150E+03 1.845E-03 0.000E+00 0.000E+00
                                         6.201E+02 1.416E-02 0.000E+00 0.000E+00
                                         1.417E+02 6.863E-02 0.000E+00 0.000E+00
                                         4.034E+01 2.286E-01 0.000E+00 0.000E+00
                                         1.303E+01 4.662E-01 0.000E+00 0.000E+00
                                         4.470E+00 3.657E-01 0.000E+00 0.000E+00
                          30-    33 SP 
                                         5.425E+00-4.133E-01 2.380E-01 0.000E+00
                                         1.149E+00 1.224E+00 8.590E-01 0.000E+00
                          34-    37 SP 
                                         2.832E-01 1.000E+00 1.000E+00 0.000E+00
                          38-    42 D  
                                         8.000E-01 0.000E+00 0.000E+00 1.000E+00
   4 N   -1.534  -6.792   1.563
   5 H    1.515  -3.743  -0.336
                                 57 S  
                                         5.447E+00 1.563E-01 0.000E+00 0.000E+00
                                         8.245E-01 9.047E-01 0.000E+00 0.000E+00
                                 58 S  
                                         1.832E-01 1.000E+00 0.000E+00 0.000E+00
                          59-    61 P  
                                         1.100E+00 0.000E+00 1.000E+00 0.000E+00
   6 H    2.708  -2.550   2.502
   7 H   -1.515  -6.774  -0.336
   8 H   -2.708  -7.966   2.502
   9 C   -5.258   0.000  -2.886
  10 O   -5.258   0.000  -5.269
  11 N   -3.724  -1.534  -1.563
  12 N   -6.792   1.534  -1.563
  13 H   -3.743  -1.515   0.336
  14 H   -2.550  -2.708  -2.502
  15 H   -6.774   1.515   0.336
  16 H   -7.966   2.708  -2.502
 INFORMATION **** SET_MPP **** PCRYSTAL CALCULATION
 INFORMATION **** READM2 **** NEW DEFAULT: FOCK/KS MATRIX MIXING SET TO 30 %
 INFORMATION **** READM2 **** NEW DEFAULT: FULL DIRECT SCF MODE
 INFORMATION **** READM2 **** NEW DEFAULT: COULOMB BIPOLAR BUFFER SET TO 32 Mb
 INFORMATION **** READM2 **** NEW DEFAULT: EXCHANGE BIPOLAR BUFFER SET TO 32 Mb
 INFORMATION **** PPAN ****  MULLIKEN POPULATION ANALYSIS AT THE END OF SCF
 *******************************************************************************
 N. OF ATOMS PER CELL        16  COULOMB OVERLAP TOL         (T1) 10**   -6
 NUMBER OF SHELLS            56  COULOMB PENETRATION TOL     (T2) 10**   -6
 NUMBER OF AO               152  EXCHANGE OVERLAP TOL        (T3) 10**   -6
 N. OF ELECTRONS PER CELL    64  EXCHANGE PSEUDO OVP (F(G))  (T4) 10**   -6
 CORE ELECTRONS PER CELL     16  EXCHANGE PSEUDO OVP (P(G))  (T5) 10**  -12
 N. OF SYMMETRY OPERATORS     8  POLE ORDER IN MONO ZONE                  4
 *******************************************************************************
 TYPE OF CALCULATION :  RESTRICTED CLOSED SHELL
 HARTREE-FOCK HAMILTONIAN

 CAPPA:IS1  2;IS2  2;IS3  2; K PTS MONK NET   6; SYMMOPS:K SPACE  16;G SPACE   8

 *******************************************************************************
 MAX NUMBER OF SCF CYCLES      50  CONVERGENCE ON DELTAP        10**-16
 WEIGHT OF F(I) IN F(I+1)      30% CONVERGENCE ON ENERGY        10**- 6
 SHRINK. FACT.(MONKH.)    2  2  2  NUMBER OF K POINTS IN THE IBZ      6
 SHRINKING FACTOR(GILAT NET)    2  NUMBER OF K POINTS(GILAT NET)      6
 *******************************************************************************
 *** K POINTS COORDINATES (OBLIQUE COORDINATES IN UNITS OF IS =  2)
   1-R(  0  0  0)   2-R(  1  0  0)   3-R(  1  1  0)   4-R(  0  0  1)
   5-R(  1  0  1)   6-R(  1  1  1)

 DIRECT LATTICE VECTORS COMPON. (A.U.)     RECIP. LATTICE VECTORS COMPON. (A.U.) 
        X            Y            Z              X            Y            Z
   10.5163259    0.0000000    0.0000000      0.5974696    0.0000000    0.0000000
    0.0000000   10.5163259    0.0000000      0.0000000    0.5974696    0.0000000
    0.0000000    0.0000000    8.8514772      0.0000000    0.0000000    0.7098460

 DISK SPACE FOR EIGENVECTORS (FTN 10)      138624 REALS

 SYMMETRY ADAPTION OF THE BLOCH FUNCTIONS ENABLED
 TTTTTTTTTTTTTTTTTTTTTTTTTTTTTT gordsh1     TELAPSE        0.06 TCPU        0.05

 MATRIX SIZE: P(G)  108364, F(G)   18098, P(G) IRR   10907, F(G) IRR    4245
 MAX G-VECTOR INDEX FOR 1- AND 2-ELECTRON INTEGRALS 113

 TTTTTTTTTTTTTTTTTTTTTTTTTTTTTT INPUT       TELAPSE        0.06 TCPU        0.05

 NEIGHBORS OF THE NON-EQUIVALENT ATOMS

 N = NUMBER OF NEIGHBORS AT DISTANCE R
    ATOM  N     R/ANG      R/AU   NEIGHBORS (ATOM LABELS AND CELL INDICES)
   1 C    1     1.2614     2.3837    2 O    0 0 0
   1 C    2     1.3447     2.5411    3 N    0 0 0    4 N    0 0 0
   1 C    2     2.0367     3.8488    6 H    0 0 0    8 H    0 0 0
   1 C    2     2.0477     3.8696    5 H    0 0 0    7 H    0 0 0
   1 C    2     2.6461     5.0004   14 H    0 0 1   16 H    1-1 1
   1 C    2     3.1089     5.8750   13 H    0 0 0   15 H    1-1 0

   2 O    1     1.2614     2.3837    1 C    0 0 0
   2 O    2     1.9922     3.7647   14 H    0 0 1   16 H    1-1 1
   2 O    2     2.0582     3.8895    5 H    0 0 1    7 H    0 0 1
   2 O    2     2.2726     4.2946    3 N    0 0 0    4 N    0 0 0
   2 O    2     2.5002     4.7246    6 H    0 0 0    8 H    0 0 0
   2 O    2     2.9550     5.5842    3 N    0 0 1    4 N    0 0 1

   3 N    1     1.0053     1.8997    5 H    0 0 0
   3 N    1     1.0092     1.9070    6 H    0 0 0
   3 N    1     1.3447     2.5411    1 C    0 0 0
   3 N    1     2.2726     4.2946    2 O    0 0 0
   3 N    1     2.2965     4.3397    4 N    0 0 0
   3 N    1     2.4939     4.7127    7 H    0 0 0

   5 H    1     1.0053     1.8997    3 N    0 0 0
   5 H    1     1.7473     3.3019    6 H    0 0 0
   5 H    1     2.0477     3.8696    1 C    0 0 0
   5 H    1     2.0582     3.8895    2 O    0 0-1
   5 H    1     2.2682     4.2862    7 H    0 0 0
   5 H    1     2.4939     4.7127    4 N    0 0 0

   6 H    1     1.0092     1.9070    3 N    0 0 0
   6 H    1     1.7473     3.3019    5 H    0 0 0
   6 H    1     1.9922     3.7647   10 O    1 0 1
   6 H    1     2.0367     3.8488    1 C    0 0 0
   6 H    2     2.4984     4.7214   13 H    1 0 0   15 H    1 0 0
   6 H    1     2.5002     4.7246    2 O    0 0 0


 SYMMETRY ALLOWED INTERNAL DEGREE(S) OF FREEDOM:   8
 TTTTTTTTTTTTTTTTTTTTTTTTTTTTTT SYMM        TELAPSE        0.06 TCPU        0.06
 TTTTTTTTTTTTTTTTTTTTTTTTTTTTTT INT_SCREEN  TELAPSE        0.06 TCPU        0.06
 TTTTTTTTTTTTTTTTTTTTTTTTTTTTTT INT_CALC    TELAPSE        0.10 TCPU        0.10
 EEEEEEEEEE INT_CALC TERMINATION  DATE 16 09 2024 TIME 12:07:13.8

 *******************************************************************************
 UREA BULK BASE 6-21 + POLARIZATION                                              
 CRYSTAL - SCF - TYPE OF CALCULATION :  RESTRICTED CLOSED SHELL
 *******************************************************************************

 CAPPA:IS1  2;IS2  2;IS3  2; K PTS MONK NET   6; SYMMOPS:K SPACE  16;G SPACE   8

 TTTTTTTTTTTTTTTTTTTTTTTTTTTTTT SDIK        TELAPSE        0.10 TCPU        0.10

 AAAAAAAAAAAAAAAAAAAAAAAAAAAAAAAAAAAAAAAAAAAAAAAAAAAAAAAAAAAAAAAAAAAAAAAAAAAAAAA
         ATOMIC WAVEFUNCTION(S)


 NUCLEAR CHARGE  6.0  SYMMETRY SPECIES            S    P
 N. ELECTRONS    6.0  NUMBER OF PRIMITIVE GTOS    9    3
                      NUMBER OF CONTRACTED GTOS   3    2
                      NUMBER OF CLOSED SHELLS     2    0
                      OPEN SHELL OCCUPATION       0    2

  ZNUC  SCFIT    TOTAL HF ENERGY   KINETIC ENERGY   VIRIAL THEOREM ACCURACY
   6.0     9    -3.765831823E+01  3.765320062E+01 -2.000135914E+00  1.5E-06

 NUCLEAR CHARGE  8.0  SYMMETRY SPECIES            S    P
 N. ELECTRONS    8.0  NUMBER OF PRIMITIVE GTOS    9    3
                      NUMBER OF CONTRACTED GTOS   3    2
                      NUMBER OF CLOSED SHELLS     2    0
                      OPEN SHELL OCCUPATION       0    4

  ZNUC  SCFIT    TOTAL HF ENERGY   KINETIC ENERGY   VIRIAL THEOREM ACCURACY
   8.0    10    -7.469910437E+01  7.469021188E+01 -2.000119058E+00  4.4E-06

 NUCLEAR CHARGE  7.0  SYMMETRY SPECIES            S    P
 N. ELECTRONS    7.0  NUMBER OF PRIMITIVE GTOS    9    3
                      NUMBER OF CONTRACTED GTOS   3    2
                      NUMBER OF CLOSED SHELLS     2    0
                      OPEN SHELL OCCUPATION       0    3

  ZNUC  SCFIT    TOTAL HF ENERGY   KINETIC ENERGY   VIRIAL THEOREM ACCURACY
   7.0     8    -5.434075199E+01  5.432977783E+01 -2.000201992E+00  3.0E-06

 NUCLEAR CHARGE  1.0  SYMMETRY SPECIES            S
 N. ELECTRONS    1.0  NUMBER OF PRIMITIVE GTOS    3
                      NUMBER OF CONTRACTED GTOS   2
                      NUMBER OF CLOSED SHELLS     0
                      OPEN SHELL OCCUPATION       1

  ZNUC  SCFIT    TOTAL HF ENERGY   KINETIC ENERGY   VIRIAL THEOREM ACCURACY
   1.0     1    -4.961986360E-01  5.144743151E-01 -1.964476984E+00  4.2E-17

 AAAAAAAAAAAAAAAAAAAAAAAAAAAAAAAAAAAAAAAAAAAAAAAAAAAAAAAAAAAAAAAAAAAAAAAAAAAAAAA

 CHARGE NORMALIZATION FACTOR   1.00000000
 TOTAL ATOMIC CHARGES:
   6.0000000   8.0000000   7.0000000   7.0000000   1.0000000   1.0000000
   1.0000000   1.0000000   6.0000000   8.0000000   7.0000000   7.0000000
   1.0000000   1.0000000   1.0000000   1.0000000
 TTTTTTTTTTTTTTTTTTTTTTTTTTTTTT MOQGAD      TELAPSE        0.13 TCPU        0.12
 TTTTTTTTTTTTTTTTTTTTTTTTTTTTTT SHELLXN     TELAPSE        5.48 TCPU        5.48
 TTTTTTTTTTTTTTTTTTTTTTTTTTTTTT MONMO3      TELAPSE        5.60 TCPU        5.60
 CYC   0 ETOT(AU) -4.500026138197E+02 DETOT -4.50E+02 tst  0.00E+00 PX  1.00E+00
 TTTTTTTTTTTTTTTTTTTTTTTTTTTTTT DIIS        TELAPSE        5.60 TCPU        5.60
 TTTTTTTTTTTTTTTTTTTTTTTTTTTTTT FDIK        TELAPSE        5.63 TCPU        5.62
 INSULATING STATE
 TOP OF VALENCE BANDS -    BAND     32; K    1; EIG -2.7358164E-01 AU
 BOTTOM OF VIRTUAL BANDS - BAND     33; K    1; EIG  7.9920254E-02 AU
 DIRECT ENERGY BAND GAP:   9.6193 eV
 TTTTTTTTTTTTTTTTTTTTTTTTTTTTTT PDIG        TELAPSE        5.63 TCPU        5.63
 CHARGE NORMALIZATION FACTOR   1.00000000
 TOTAL ATOMIC CHARGES:
   4.6093562   8.9787727   7.7761433   7.7761433   0.7148294   0.7149629
   0.7148294   0.7149629   4.6093562   8.9787727   7.7761433   7.7761433
   0.7148294   0.7149629   0.7148294   0.7149629
 TTTTTTTTTTTTTTTTTTTTTTTTTTTTTT MOQGAD      TELAPSE        5.65 TCPU        5.64
 TTTTTTTTTTTTTTTTTTTTTTTTTTTTTT SHELLXN     TELAPSE       11.10 TCPU       11.09
 TTTTTTTTTTTTTTTTTTTTTTTTTTTTTT MONMO3      TELAPSE       11.22 TCPU       11.21
 CYC   1 ETOT(AU) -4.475369147872E+02 DETOT  2.47E+00 tst  0.00E+00 PX  1.00E+00
 TTTTTTTTTTTTTTTTTTTTTTTTTTTTTT DIIS        TELAPSE       11.23 TCPU       11.21
 DIIS TEST: 0.89910E+00 AT SCF   CYCLE   1 - MIX   30 %
 TTTTTTTTTTTTTTTTTTTTTTTTTTTTTT FDIK        TELAPSE       11.24 TCPU       11.22
 INSULATING STATE
 TOP OF VALENCE BANDS -    BAND     32; K    1; EIG -3.5468526E-01 AU
 BOTTOM OF VIRTUAL BANDS - BAND     33; K    1; EIG  1.6990346E-01 AU
 DIRECT ENERGY BAND GAP:  14.2748 eV
 TTTTTTTTTTTTTTTTTTTTTTTTTTTTTT PDIG        TELAPSE       11.25 TCPU       11.23
 CHARGE NORMALIZATION FACTOR   1.00000000
 TOTAL ATOMIC CHARGES:
   4.8991938   8.7249802   7.7374826   7.7374826   0.7247037   0.7257267
   0.7247037   0.7257267   4.8991938   8.7249802   7.7374826   7.7374826
   0.7247037   0.7257267   0.7247037   0.7257267
 TTTTTTTTTTTTTTTTTTTTTTTTTTTTTT MOQGAD      TELAPSE       11.27 TCPU       11.25
 TTTTTTTTTTTTTTTTTTTTTTTTTTTTTT SHELLXN     TELAPSE       16.80 TCPU       16.78
 TTTTTTTTTTTTTTTTTTTTTTTTTTTTTT MONMO3      TELAPSE       16.92 TCPU       16.90
 CYC   2 ETOT(AU) -4.476644065831E+02 DETOT -1.27E-01 tst  2.95E-03 PX  7.55E-02
 TTTTTTTTTTTTTTTTTTTTTTTTTTTTTT DIIS        TELAPSE       16.93 TCPU       16.91
 DIIS TEST: 0.95123E-01 AT SCF   CYCLE   2 - DIIS ACTIVE - HISTORY:     2 CYCLES
 TTTTTTTTTTTTTTTTTTTTTTTTTTTTTT FDIK        TELAPSE       16.94 TCPU       16.91
 INSULATING STATE
 TOP OF VALENCE BANDS -    BAND     32; K    1; EIG -3.8214665E-01 AU
 BOTTOM OF VIRTUAL BANDS - BAND     33; K    1; EIG  2.0066874E-01 AU
 DIRECT ENERGY BAND GAP:  15.8592 eV
 TTTTTTTTTTTTTTTTTTTTTTTTTTTTTT PDIG        TELAPSE       16.95 TCPU       16.92
 CHARGE NORMALIZATION FACTOR   1.00000000
 TOTAL ATOMIC CHARGES:
   4.8019728   8.8014887   7.7403553   7.7403553   0.7288835   0.7290304
   0.7288835   0.7290304   4.8019728   8.8014887   7.7403553   7.7403553
   0.7288835   0.7290304   0.7288835   0.7290304
 TTTTTTTTTTTTTTTTTTTTTTTTTTTTTT MOQGAD      TELAPSE       16.97 TCPU       16.94
 TTTTTTTTTTTTTTTTTTTTTTTTTTTTTT SHELLXN     TELAPSE       22.55 TCPU       22.52
 TTTTTTTTTTTTTTTTTTTTTTTTTTTTTT MONMO3      TELAPSE       22.69 TCPU       22.66
 CYC   3 ETOT(AU) -4.476793167723E+02 DETOT -1.49E-02 tst  3.18E-04 PX  2.90E-02
 TTTTTTTTTTTTTTTTTTTTTTTTTTTTTT DIIS        TELAPSE       22.70 TCPU       22.67
 DIIS TEST: 0.10025E-01 AT SCF   CYCLE   3 - DIIS ACTIVE - HISTORY:     3 CYCLES
 TTTTTTTTTTTTTTTTTTTTTTTTTTTTTT FDIK        TELAPSE       22.71 TCPU       22.68
 INSULATING STATE
 TOP OF VALENCE BANDS -    BAND     32; K    1; EIG -3.8599894E-01 AU
 BOTTOM OF VIRTUAL BANDS - BAND     33; K    1; EIG  2.0698614E-01 AU
 DIRECT ENERGY BAND GAP:  16.1360 eV
 TTTTTTTTTTTTTTTTTTTTTTTTTTTTTT PDIG        TELAPSE       22.73 TCPU       22.70
 CHARGE NORMALIZATION FACTOR   1.00000000
 TOTAL ATOMIC CHARGES:
   4.7999032   8.7757381   7.7560330   7.7560330   0.7279482   0.7281981
   0.7279482   0.7281981   4.7999032   8.7757381   7.7560330   7.7560330
   0.7279482   0.7281981   0.7279482   0.7281981
 TTTTTTTTTTTTTTTTTTTTTTTTTTTTTT MOQGAD      TELAPSE       22.75 TCPU       22.72
 TTTTTTTTTTTTTTTTTTTTTTTTTTTTTT SHELLXN     TELAPSE       29.13 TCPU       29.10
 TTTTTTTTTTTTTTTTTTTTTTTTTTTTTT MONMO3      TELAPSE       29.26 TCPU       29.23
 CYC   4 ETOT(AU) -4.476810867597E+02 DETOT -1.77E-03 tst  6.85E-05 PX  8.63E-03
 TTTTTTTTTTTTTTTTTTTTTTTTTTTTTT DIIS        TELAPSE       29.27 TCPU       29.23
 DIIS TEST: 0.86606E-03 AT SCF   CYCLE   4 - DIIS ACTIVE - HISTORY:     4 CYCLES
 TTTTTTTTTTTTTTTTTTTTTTTTTTTTTT FDIK        TELAPSE       29.28 TCPU       29.24
 INSULATING STATE
 TOP OF VALENCE BANDS -    BAND     32; K    1; EIG -3.8354382E-01 AU
 BOTTOM OF VIRTUAL BANDS - BAND     33; K    1; EIG  2.0755685E-01 AU
 DIRECT ENERGY BAND GAP:  16.0847 eV
 TTTTTTTTTTTTTTTTTTTTTTTTTTTTTT PDIG        TELAPSE       29.29 TCPU       29.25
 CHARGE NORMALIZATION FACTOR   1.00000000
 TOTAL ATOMIC CHARGES:
   4.8043047   8.7809792   7.7487879   7.7487879   0.7290545   0.7295156
   0.7290545   0.7295156   4.8043047   8.7809792   7.7487879   7.7487879
   0.7290545   0.7295156   0.7290545   0.7295156
 TTTTTTTTTTTTTTTTTTTTTTTTTTTTTT MOQGAD      TELAPSE       29.31 TCPU       29.27
 TTTTTTTTTTTTTTTTTTTTTTTTTTTTTT SHELLXN     TELAPSE       36.05 TCPU       36.01
 TTTTTTTTTTTTTTTTTTTTTTTTTTTTTT MONMO3      TELAPSE       36.18 TCPU       36.14
 CYC   5 ETOT(AU) -4.476812241013E+02 DETOT -1.37E-04 tst  3.65E-06 PX  3.44E-03
 TTTTTTTTTTTTTTTTTTTTTTTTTTTTTT DIIS        TELAPSE       36.19 TCPU       36.15
 DIIS TEST: 0.42202E-04 AT SCF   CYCLE   5 - DIIS ACTIVE - HISTORY:     5 CYCLES
 TTTTTTTTTTTTTTTTTTTTTTTTTTTTTT FDIK        TELAPSE       36.20 TCPU       36.15
 INSULATING STATE
 TOP OF VALENCE BANDS -    BAND     32; K    1; EIG -3.8428930E-01 AU
 BOTTOM OF VIRTUAL BANDS - BAND     33; K    1; EIG  2.0746084E-01 AU
 DIRECT ENERGY BAND GAP:  16.1023 eV
 TTTTTTTTTTTTTTTTTTTTTTTTTTTTTT PDIG        TELAPSE       36.21 TCPU       36.16
 CHARGE NORMALIZATION FACTOR   1.00000000
 TOTAL ATOMIC CHARGES:
   4.8038829   8.7797384   7.7492824   7.7492824   0.7292292   0.7296777
   0.7292292   0.7296777   4.8038829   8.7797384   7.7492824   7.7492824
   0.7292292   0.7296777   0.7292292   0.7296777
 TTTTTTTTTTTTTTTTTTTTTTTTTTTTTT MOQGAD      TELAPSE       36.23 TCPU       36.18
 TTTTTTTTTTTTTTTTTTTTTTTTTTTTTT SHELLXN     TELAPSE       44.86 TCPU       44.82
 TTTTTTTTTTTTTTTTTTTTTTTTTTTTTT MONMO3      TELAPSE       45.07 TCPU       45.02
 CYC   6 ETOT(AU) -4.476812436530E+02 DETOT -1.96E-05 tst  1.40E-06 PX  8.03E-04
 TTTTTTTTTTTTTTTTTTTTTTTTTTTTTT DIIS        TELAPSE       45.08 TCPU       45.03
 DIIS TEST: 0.40177E-05 AT SCF   CYCLE   6 - DIIS ACTIVE - HISTORY:     6 CYCLES
 TTTTTTTTTTTTTTTTTTTTTTTTTTTTTT FDIK        TELAPSE       45.10 TCPU       45.05
 INSULATING STATE
 TOP OF VALENCE BANDS -    BAND     32; K    1; EIG -3.8441521E-01 AU
 BOTTOM OF VIRTUAL BANDS - BAND     33; K    1; EIG  2.0745947E-01 AU
 DIRECT ENERGY BAND GAP:  16.1057 eV
 TTTTTTTTTTTTTTTTTTTTTTTTTTTTTT PDIG        TELAPSE       45.11 TCPU       45.06
 CHARGE NORMALIZATION FACTOR   1.00000000
 TOTAL ATOMIC CHARGES:
   4.8039492   8.7795728   7.7490351   7.7490351   0.7293594   0.7298445
   0.7293594   0.7298445   4.8039492   8.7795728   7.7490351   7.7490351
   0.7293594   0.7298445   0.7293594   0.7298445
 TTTTTTTTTTTTTTTTTTTTTTTTTTTTTT MOQGAD      TELAPSE       45.15 TCPU       45.10
 TTTTTTTTTTTTTTTTTTTTTTTTTTTTTT SHELLXN     TELAPSE       52.96 TCPU       52.91
 TTTTTTTTTTTTTTTTTTTTTTTTTTTTTT MONMO3      TELAPSE       53.08 TCPU       53.03
 CYC   7 ETOT(AU) -4.476812459438E+02 DETOT -2.29E-06 tst  2.90E-07 PX  3.95E-04
 TTTTTTTTTTTTTTTTTTTTTTTTTTTTTT DIIS        TELAPSE       53.09 TCPU       53.04
 DIIS TEST: 0.21149E-06 AT SCF   CYCLE   7 - DIIS ACTIVE - HISTORY:     7 CYCLES
 TTTTTTTTTTTTTTTTTTTTTTTTTTTTTT FDIK        TELAPSE       53.10 TCPU       53.05
 INSULATING STATE
 TOP OF VALENCE BANDS -    BAND     32; K    1; EIG -3.8440590E-01 AU
 BOTTOM OF VIRTUAL BANDS - BAND     33; K    1; EIG  2.0747753E-01 AU
 DIRECT ENERGY BAND GAP:  16.1060 eV
 TTTTTTTTTTTTTTTTTTTTTTTTTTTTTT PDIG        TELAPSE       53.11 TCPU       53.05
 CHARGE NORMALIZATION FACTOR   1.00000000
 TOTAL ATOMIC CHARGES:
   4.8039279   8.7795349   7.7489879   7.7489879   0.7293902   0.7298905
   0.7293902   0.7298905   4.8039279   8.7795349   7.7489879   7.7489879
   0.7293902   0.7298905   0.7293902   0.7298905
 TTTTTTTTTTTTTTTTTTTTTTTTTTTTTT MOQGAD      TELAPSE       53.13 TCPU       53.07
 TTTTTTTTTTTTTTTTTTTTTTTTTTTTTT SHELLXN     TELAPSE       59.15 TCPU       59.10
 TTTTTTTTTTTTTTTTTTTTTTTTTTTTTT MONMO3      TELAPSE       59.28 TCPU       59.23
 CYC   8 ETOT(AU) -4.476812459382E+02 DETOT  5.63E-09 tst  1.83E-08 PX  9.10E-05
 TTTTTTTTTTTTTTTTTTTTTTTTTTTTTT DIIS        TELAPSE       59.29 TCPU       59.23
 DIIS TEST: 0.13917E-07 AT SCF   CYCLE   8 - DIIS ACTIVE - HISTORY:     8 CYCLES
 TTTTTTTTTTTTTTTTTTTTTTTTTTTTTT FDIK        TELAPSE       59.30 TCPU       59.24
 INSULATING STATE
 TOP OF VALENCE BANDS -    BAND     32; K    1; EIG -3.8441540E-01 AU
 BOTTOM OF VIRTUAL BANDS - BAND     33; K    1; EIG  2.0747552E-01 AU
 DIRECT ENERGY BAND GAP:  16.1062 eV
 TTTTTTTTTTTTTTTTTTTTTTTTTTTTTT PDIG        TELAPSE       59.31 TCPU       59.25
 CHARGE NORMALIZATION FACTOR   1.00000000
 TOTAL ATOMIC CHARGES:
   4.8039129   8.7795432   7.7489948   7.7489948   0.7293847   0.7298925
   0.7293847   0.7298925   4.8039129   8.7795432   7.7489948   7.7489948
   0.7293847   0.7298925   0.7293847   0.7298925
 TTTTTTTTTTTTTTTTTTTTTTTTTTTTTT MOQGAD      TELAPSE       59.34 TCPU       59.27
 TTTTTTTTTTTTTTTTTTTTTTTTTTTTTT SHELLXN     TELAPSE       65.13 TCPU       65.07
 +++ ENERGIES IN A.U. +++
 ::: EXT EL-POLE                                  -5.9275586832501E+02
 ::: EXT EL-SPHEROPOLE                             7.1541035513244E+00
 ::: BIELET ZONE E-E                               6.8312291621399E+02
 ::: TOTAL E-E                                     9.7521151440303E+01
 ::: TOTAL E-N + N-E                              -9.1688701157202E+02
 ::: TOTAL N-N                                    -7.5336138747023E+01
 ::: KINETIC ENERGY                                4.4702075288008E+02
 ::: TOTAL   ENERGY                               -4.4768124599867E+02
 ::: VIRIAL COEFFICIENT                            9.9926177306028E-01
 TTTTTTTTTTTTTTTTTTTTTTTTTTTTTT MONMO3      TELAPSE       65.25 TCPU       65.19
 CYC   9 ETOT(AU) -4.476812459987E+02 DETOT -6.05E-08 tst  5.85E-10 PX  9.10E-05

 == SCF ENDED - CONVERGENCE ON ENERGY      E(AU) -4.4768124599867E+02 CYCLES   9

 TOTAL ENERGY(HF)(AU)(   9) -4.4768124599867E+02 DE-6.1E-08 tst 5.8E-10 PX 9.1E-05

 NEIGHBORS OF THE NON-EQUIVALENT ATOMS

 N = NUMBER OF NEIGHBORS AT DISTANCE R
    ATOM  N     R/ANG      R/AU   NEIGHBORS (ATOM LABELS AND CELL INDICES)
   1 C    1     1.2614     2.3837    2 O    0 0 0
   1 C    2     1.3447     2.5411    3 N    0 0 0    4 N    0 0 0
   1 C    2     2.0367     3.8488    6 H    0 0 0    8 H    0 0 0
   1 C    2     2.0477     3.8696    5 H    0 0 0    7 H    0 0 0
   1 C    2     2.6461     5.0004   14 H    0 0 1   16 H    1-1 1
   1 C    2     3.1089     5.8750   13 H    0 0 0   15 H    1-1 0

   2 O    1     1.2614     2.3837    1 C    0 0 0
   2 O    2     1.9922     3.7647   14 H    0 0 1   16 H    1-1 1
   2 O    2     2.0582     3.8895    5 H    0 0 1    7 H    0 0 1
   2 O    2     2.2726     4.2946    3 N    0 0 0    4 N    0 0 0
   2 O    2     2.5002     4.7246    6 H    0 0 0    8 H    0 0 0
   2 O    2     2.9550     5.5842    3 N    0 0 1    4 N    0 0 1

   3 N    1     1.0053     1.8997    5 H    0 0 0
   3 N    1     1.0092     1.9070    6 H    0 0 0
   3 N    1     1.3447     2.5411    1 C    0 0 0
   3 N    1     2.2726     4.2946    2 O    0 0 0
   3 N    1     2.2965     4.3397    4 N    0 0 0
   3 N    1     2.4939     4.7127    7 H    0 0 0

   5 H    1     1.0053     1.8997    3 N    0 0 0
   5 H    1     1.7473     3.3019    6 H    0 0 0
   5 H    1     2.0477     3.8696    1 C    0 0 0
   5 H    1     2.0582     3.8895    2 O    0 0-1
   5 H    1     2.2682     4.2862    7 H    0 0 0
   5 H    1     2.4939     4.7127    4 N    0 0 0

   6 H    1     1.0092     1.9070    3 N    0 0 0
   6 H    1     1.7473     3.3019    5 H    0 0 0
   6 H    1     1.9922     3.7647   10 O    1 0 1
   6 H    1     2.0367     3.8488    1 C    0 0 0
   6 H    2     2.4984     4.7214   13 H    1 0 0   15 H    1 0 0
   6 H    1     2.5002     4.7246    2 O    0 0 0

 TTTTTTTTTTTTTTTTTTTTTTTTTTTTTT AFTER FIRST TELAPSE       65.26 TCPU       65.19
 MMMMMMMMMMMMMMMMMMMMMMMMMMMMMMMMMMMMMMMMMMMMMMMMMMMMMMMMMMMMMMMMMMMMMMMMMMMMMMM
     ALPHA+BETA ELECTRONS
 MULLIKEN POPULATION ANALYSIS - NO. OF ELECTRONS   64.000000

  ATOM    Z CHARGE  A.O. POPULATION

   1 C    6  4.804  1.997  0.404  0.434  0.434  0.575  0.329  0.236  0.236
                    0.011  0.028  0.043  0.043  0.024  0.012
   2 O    8  8.780  1.997  0.408  0.744  0.744  0.606  1.517  0.976  0.976
                    0.781  0.016  0.007  0.007  0.000  0.000
   3 N    7  7.749  1.997  0.358  0.649  0.649  0.581  1.226  0.811  0.811
                    0.644  0.005  0.005  0.005  0.003  0.005
   4 N    7  7.749  1.997  0.358  0.649  0.649  0.581  1.226  0.811  0.811
                    0.644  0.005  0.005  0.005  0.003  0.005
   5 H    1  0.729  0.432  0.262  0.005  0.005  0.027
   6 H    1  0.730  0.426  0.268  0.014  0.014  0.008
   7 H    1  0.729  0.432  0.262  0.005  0.005  0.027
   8 H    1  0.730  0.426  0.268  0.014  0.014  0.008
   9 C    6  4.804  1.997  0.404  0.434  0.434  0.575  0.329  0.236  0.236
                    0.011  0.028  0.043  0.043  0.024  0.012
  10 O    8  8.780  1.997  0.408  0.744  0.744  0.606  1.517  0.976  0.976
                    0.781  0.016  0.007  0.007  0.000  0.000
  11 N    7  7.749  1.997  0.358  0.649  0.649  0.581  1.226  0.811  0.811
                    0.644  0.005  0.005  0.005  0.003  0.005
  12 N    7  7.749  1.997  0.358  0.649  0.649  0.581  1.226  0.811  0.811
                    0.644  0.005  0.005  0.005  0.003  0.005
  13 H    1  0.729  0.432  0.262  0.005  0.005  0.027
  14 H    1  0.730  0.426  0.268  0.014  0.014  0.008
  15 H    1  0.729  0.432  0.262  0.005  0.005  0.027
  16 H    1  0.730  0.426  0.268  0.014  0.014  0.008

  ATOM    Z CHARGE  SHELL POPULATION

   1 C    6  4.804  1.997  1.847  0.811  0.149
   2 O    8  8.780  1.997  2.502  4.250  0.030
   3 N    7  7.749  1.997  2.237  3.492  0.024
   4 N    7  7.749  1.997  2.237  3.492  0.024
   5 H    1  0.729  0.432  0.262  0.036
   6 H    1  0.730  0.426  0.268  0.037
   7 H    1  0.729  0.432  0.262  0.036
   8 H    1  0.730  0.426  0.268  0.037
   9 C    6  4.804  1.997  1.847  0.811  0.149
  10 O    8  8.780  1.997  2.502  4.250  0.030
  11 N    7  7.749  1.997  2.237  3.492  0.024
  12 N    7  7.749  1.997  2.237  3.492  0.024
  13 H    1  0.729  0.432  0.262  0.036
  14 H    1  0.730  0.426  0.268  0.037
  15 H    1  0.729  0.432  0.262  0.036
  16 H    1  0.730  0.426  0.268  0.037

 OVERLAP POPULATION CONDENSED TO ATOMS FOR FIRST   6 NEIGHBORS

 ATOM A   1 C    ATOM B     CELL      R(AB)/AU R(AB)/ANG    OVPOP(AB)
                  2 O    (  0  0  0)     2.384     1.261     0.490
                  3 N    (  0  0  0)     2.541     1.345     0.341
                  6 H    (  0  0  0)     3.849     2.037    -0.028
                  5 H    (  0  0  0)     3.870     2.048    -0.027
                 14 H    (  0  0  1)     5.000     2.646     0.001
                 13 H    (  0  0  0)     5.875     3.109     0.001

 ATOM A   2 O    ATOM B     CELL      R(AB)/AU R(AB)/ANG    OVPOP(AB)
                  1 C    (  0  0  0)     2.384     1.261     0.490
                 14 H    (  0  0  1)     3.765     1.992     0.045
                  5 H    (  0  0  1)     3.890     2.058     0.034
                  3 N    (  0  0  0)     4.295     2.273    -0.052
                  6 H    (  0  0  0)     4.725     2.500     0.002
                  3 N    (  0  0  1)     5.584     2.955    -0.006

 ATOM A   3 N    ATOM B     CELL      R(AB)/AU R(AB)/ANG    OVPOP(AB)
                  5 H    (  0  0  0)     1.900     1.005     0.343
                  6 H    (  0  0  0)     1.907     1.009     0.333
                  1 C    (  0  0  0)     2.541     1.345     0.341
                  2 O    (  0  0  0)     4.295     2.273    -0.052
                  4 N    (  0  0  0)     4.340     2.296    -0.078
                  7 H    (  0  0  0)     4.713     2.494    -0.001

 ATOM A   5 H    ATOM B     CELL      R(AB)/AU R(AB)/ANG    OVPOP(AB)
                  3 N    (  0  0  0)     1.900     1.005     0.343
                  6 H    (  0  0  0)     3.302     1.747    -0.017
                  1 C    (  0  0  0)     3.870     2.048    -0.027
                  2 O    (  0  0 -1)     3.890     2.058     0.034
                  7 H    (  0  0  0)     4.286     2.268    -0.003
                  4 N    (  0  0  0)     4.713     2.494    -0.001

 ATOM A   6 H    ATOM B     CELL      R(AB)/AU R(AB)/ANG    OVPOP(AB)
                  3 N    (  0  0  0)     1.907     1.009     0.333
                  5 H    (  0  0  0)     3.302     1.747    -0.017
                 10 O    (  1  0  1)     3.765     1.992     0.045
                  1 C    (  0  0  0)     3.849     2.037    -0.028
                 13 H    (  1  0  0)     4.721     2.498     0.001
                  2 O    (  0  0  0)     4.725     2.500     0.002
 EIGENVECTORS IN FORTRAN UNIT 10
 TTTTTTTTTTTTTTTTTTTTTTTTTTTTTT END         TELAPSE       65.28 TCPU       65.22
 EEEEEEEEEE TERMINATION  DATE 16 09 2024 TIME 12:08:19.0
