
         
 *******************************************************************************
 *                                                                             *
 *                               CRYSTAL17                                     *
 *                      public : 1.0.2 - March 1st, 2018                       *
 *                       HTTP://WWW.CRYSTAL.UNITO.IT                           *
 *                                                                             *
 *                              MAIN AUTHORS                                   *
 *                                                                             *
 *  R. DOVESI(1,11), V.R. SAUNDERS(2), C. ROETTI(1,11), R. ORLANDO(1,11),      *
 *  C.M. ZICOVICH-WILSON(1,3), F. PASCALE(4), B. CIVALLERI(1,11),              *
 *  K. DOLL(5), N.M. HARRISON(2,6), I.J. BUSH(7), Ph. D'ARCO(8),               *
 *  M. LLUNELL(9), M. CAUSA'(10), Y. NOEL(8), L. MASCHIO(1,11), A. ERBA(1,11)  *
 *  M. RE'RAT(14), S. CASASSA(1,11)                                            *
 *                                                                             *
 *        CONTRIBUTIONS TO THE CODE HAVE ALSO BEEN GIVEN BY                    *
 *                                                                             *
 *  M. FERRABONE(1,11), M. DE LA PIERRE(1,11), M. FERRERO(1,11),               *
 *  J. BAIMA(1,11), E. ALBANESE(1,11), M.F. PEINTINGER(12), R. BAST(13),       *
 *  B. KIRTMAN(15), V. LACIVITA(1,11), R. DEMICHELIS(1,16)                     *
 *  G. BRANDEBURG(17), S. SALUSTRO(1,11), G. SANSONE(1,11)                     *
 *  M.T. RUGGIERO(18)                                                          *
 *                                                                             *
 * (1) THEORETICAL CHEMISTRY GROUP - UNIVERSITA' DI TORINO - TORINO (ITALY)    *
 * (2) COMPUTATIONAL SCIENCE & ENGINEERING DEPARTMENT - STFC DARESBURY (UK)    *
 * (3) UNIVERSIDAD AUTONOMA DEL ESTADO DE MORELOS - CUERNAVACA (MEXICO)        *
 * (4) UNIVERSITE' DE LORRAINE - NANCY (FRANCE)                                *
 * (5) UNIVERSITAET STUTTGART- STUTTGART (GERMANY)                             *
 * (6) IMPERIAL COLLEGE - LONDON (UK)                                          *
 * (7) OXFORD E-RESEARCH CENTRE - OXFORD (UK)                                  *
 * (8) UPMC - SORBONNE UNIVERSITES - PARIS (FRANCE)                            *
 * (9) UNIVERSIDAD DE BARCELONA - BARCELONA (SPAIN)                            *
 *(10) UNIVERSITA' DI NAPOLI "FEDERICO II" - NAPOLI (ITALY)                    *
 *(11) NIS - NANOSTRUCTURED INTERFACES AND SURFACES - TORINO (ITALY)           *
 *(12) MPI FUER CHEMISCHE ENERGIEKONVERSION - MUELHEIM AN DER RUHR (GERMANY)   *
 *(13) UNIVERSITY OF TROMSO - TROMSO (NORWAY)                                  *
 *(14) UNIVERSITE' DE PAU ET DES PAYS DE L'ADOUR - PAU (FRANCE)                *
 *(15) UNIVERSITY OF CALIFORNIA SANTA BARBARA - SANTA BARBARA (USA)            *
 *(16) CURTIN UNIVERSITY - PERTH (AUSTRALIA)                                   *
 *(17) UNIVERSITY COLLEGE LONDON - LONDON (UK)                                 *
 *(18) CAMBRIDGE UNIVERSITY - CAMBRIDGE (UK)                                   *
 *                                                                             *
 *******************************************************************************
 EEEEEEEEEE STARTING  DATE 24 09 2020 TIME 13:48:20.2
 UREA BULK BASE 6-21 + POLARIZATION                                              

 CRYSTAL CALCULATION
 (INPUT ACCORDING TO THE INTERNATIONAL TABLES FOR X-RAY CRYSTALLOGRAPHY)
 CRYSTAL FAMILY                       :  TETRAGONAL  
 CRYSTAL CLASS  (GROTH - 1921)        :  TETRAGONAL SCALENOHEDRAL             

 SPACE GROUP (NONCENTROSYMMETRIC)     :  P -4 21 M       

 LATTICE PARAMETERS  (ANGSTROMS AND DEGREES) - CONVENTIONAL CELL
        A           B           C        ALPHA        BETA       GAMMA
     5.56500     5.56500     4.68400    90.00000    90.00000    90.00000


 NUMBER OF IRREDUCIBLE ATOMS IN THE CONVENTIONAL CELL:    5

 INPUT COORDINATES

 ATOM AT. N.              COORDINATES
   1   6     0.000000000000E+00  5.000000000000E-01  3.260000000000E-01
   2   8     0.000000000000E+00  5.000000000000E-01  5.953000000000E-01
   3   7     1.459000000000E-01  6.459000000000E-01  1.766000000000E-01
   4   1     2.575000000000E-01  7.575000000000E-01  2.827000000000E-01
   5   1     1.441000000000E-01  6.441000000000E-01 -3.800000000000E-02

 *******************************************************************************

 << INFORMATION >>: FROM NOW ON, ALL COORDINATES REFER TO THE PRIMITIVE CELL

 *******************************************************************************

 LATTICE PARAMETERS  (ANGSTROMS AND DEGREES) - PRIMITIVE CELL
       A          B          C        ALPHA      BETA     GAMMA        VOLUME
    5.56500    5.56500    4.68400    90.00000  90.00000  90.00000    145.059850

 COORDINATES OF THE EQUIVALENT ATOMS (FRACTIONAL UNITS)

 N. ATOM EQUIV AT. N.          X                  Y                  Z

   1   1   1    6 C     0.00000000000E+00 -5.00000000000E-01  3.26000000000E-01
   2   1   2    6 C    -5.00000000000E-01  0.00000000000E+00 -3.26000000000E-01

   3   2   1    8 O     0.00000000000E+00 -5.00000000000E-01 -4.04700000000E-01
   4   2   2    8 O    -5.00000000000E-01  0.00000000000E+00  4.04700000000E-01

   5   3   1    7 N     1.45900000000E-01 -3.54100000000E-01  1.76600000000E-01
   6   3   2    7 N    -1.45900000000E-01  3.54100000000E-01  1.76600000000E-01
   7   3   3    7 N    -3.54100000000E-01 -1.45900000000E-01 -1.76600000000E-01
   8   3   4    7 N     3.54100000000E-01  1.45900000000E-01 -1.76600000000E-01

   9   4   1    1 H     2.57500000000E-01 -2.42500000000E-01  2.82700000000E-01
  10   4   2    1 H    -2.57500000000E-01  2.42500000000E-01  2.82700000000E-01
  11   4   3    1 H    -2.42500000000E-01 -2.57500000000E-01 -2.82700000000E-01
  12   4   4    1 H     2.42500000000E-01  2.57500000000E-01 -2.82700000000E-01

  13   5   1    1 H     1.44100000000E-01 -3.55900000000E-01 -3.80000000000E-02
  14   5   2    1 H    -1.44100000000E-01  3.55900000000E-01 -3.80000000000E-02
  15   5   3    1 H    -3.55900000000E-01 -1.44100000000E-01  3.80000000000E-02
  16   5   4    1 H     3.55900000000E-01  1.44100000000E-01  3.80000000000E-02

 NUMBER OF SYMMETRY OPERATORS         :    8
 *******************************************************************************
 * GEOMETRY EDITING - INPUT COORDINATES ARE GIVEN IN ANGSTROM         
 *******************************************************************************

 GEOMETRY NOW FULLY CONSISTENT WITH THE GROUP
 INFORMATION **** NEW DEFAULT **** FINALRUN 4 FOR GEOMETRY OPTIMIZATIONS
 INFORMATION **** NEW DEFAULT **** OPTGEOM OPTIMIZES BOTH ATOMIC COORDINATES AND CELL PARAMETERS
 INFORMATION **** NEW DEFAULT **** TOL. ON ATOMIC DISP TO REDEFINE REF. GEOMETRY: 0.8 Angs
 INFORMATION **** NEW DEFAULT **** N POINTS TO REDEFINE REF. GEOMETRY: N OF OPT DEGS OF FREEDOM
 INFORMATION **** NEW DEFAULT **** TOL. ON ENERGY TO REDEFINE REF. GEOMETRY: 10**-3*(5*N. ATOMS)

 IMPORTANT INFORMATION:
 THE COORDINATE SYSTEM ADOPTED IN THE OPTIMIZATION IS NOT IN
 GENERAL HOMOGENEOUS UNITS. FOR THIS REASON THE GRADIENT AND 
 HESSIAN MATRIX IN TERMS OF THIS SYSTEM ARE GIVEN WITHOUT
 UNITS. FOR MORE DETAILS SEE THE MANUAL.

 *******************************************************************************
 COMBINED CELL/ATOM OPTIMIZATION CONTROL

 INITIAL TRUST RADIUS         0.50000 MAXIMUM TRUST RADIUS               4.00000
 MAXIMUM GRADIENT COMPONENT   0.00045 MAXIMUM DISPLACEMENT COMPONENT     0.00180
 R.M.S. OF GRADIENT COMPONENT 0.00030 R.M.S. OF DISPLACEMENT COMPONENTS  0.00120
 THRESHOLD ON ENERGY CHANGE 0.100E-06 EXTRAPOLATING POLYNOMIAL ORDER           2
 MAXIMUM ALLOWED NUMBER OF STEPS   -1 SORTING OF ENERGY POINTS:               NO
 ANALYTICAL  GRADIENT                 HESSIAN UPDATING                      BFGS
 STEP SIZE NUMERICAL GRADIENT 0.00100
 INITIAL HESSIAN MATRIX: SCHLEGEL MODEL 2
 *******************************************************************************


 GCALCO - MAX INDICES DIRECT LATTICE VECTOR    14    14    16
 NO.OF VECTORS CREATED 6999 STARS  525 RMAX   117.81283 BOHR

 GEOMETRY FOR WAVE FUNCTION - DIMENSIONALITY OF THE SYSTEM    3
 (NON PERIODIC DIRECTION: LATTICE PARAMETER FORMALLY SET TO 500)
 *******************************************************************************
 LATTICE PARAMETERS (ANGSTROMS AND DEGREES) - BOHR = 0.5291772083 ANGSTROM
 PRIMITIVE CELL - CENTRING CODE 1/0 VOLUME=   145.059850 - DENSITY  1.374 g/cm^3
         A              B              C           ALPHA      BETA       GAMMA 
     5.56500000     5.56500000     4.68400000    90.000000  90.000000  90.000000
 *******************************************************************************
 ATOMS IN THE ASYMMETRIC UNIT    5 - ATOMS IN THE UNIT CELL:   16
     ATOM                 X/A                 Y/B                 Z/C    
 *******************************************************************************
      1 T   6 C     0.000000000000E+00  5.000000000000E-01  3.260000000000E-01
      2 F   6 C    -5.000000000000E-01  0.000000000000E+00 -3.260000000000E-01
      3 T   8 O     0.000000000000E+00  5.000000000000E-01 -4.047000000000E-01
      4 F   8 O    -5.000000000000E-01  0.000000000000E+00  4.047000000000E-01
      5 T   7 N     1.459000000000E-01 -3.541000000000E-01  1.766000000000E-01
      6 F   7 N    -1.459000000000E-01  3.541000000000E-01  1.766000000000E-01
      7 F   7 N    -3.541000000000E-01 -1.459000000000E-01 -1.766000000000E-01
      8 F   7 N     3.541000000000E-01  1.459000000000E-01 -1.766000000000E-01
      9 T   1 H     2.575000000000E-01 -2.425000000000E-01  2.827000000000E-01
     10 F   1 H    -2.575000000000E-01  2.425000000000E-01  2.827000000000E-01
     11 F   1 H    -2.425000000000E-01 -2.575000000000E-01 -2.827000000000E-01
     12 F   1 H     2.425000000000E-01  2.575000000000E-01 -2.827000000000E-01
     13 T   1 H     1.441000000000E-01 -3.559000000000E-01 -3.800000000000E-02
     14 F   1 H    -1.441000000000E-01  3.559000000000E-01 -3.800000000000E-02
     15 F   1 H    -3.559000000000E-01 -1.441000000000E-01  3.800000000000E-02
     16 F   1 H     3.559000000000E-01  1.441000000000E-01  3.800000000000E-02

 T = ATOM BELONGING TO THE ASYMMETRIC UNIT

 ****    8 SYMMOPS - TRANSLATORS IN FRACTIONAL UNITS
 **** MATRICES AND TRANSLATORS IN THE CRYSTALLOGRAPHIC REFERENCE FRAME
   V INV                    ROTATION MATRICES                   TRANSLATORS
   1   1  1.00  0.00  0.00  0.00  1.00  0.00  0.00  0.00  1.00  0.00  0.00  0.00
   2   2 -1.00  0.00  0.00  0.00 -1.00  0.00  0.00  0.00  1.00  0.00  0.00  0.00
   3   3  1.00  0.00  0.00  0.00 -1.00  0.00  0.00  0.00 -1.00  0.50  0.50  0.00
   4   4 -1.00  0.00  0.00  0.00  1.00  0.00  0.00  0.00 -1.00  0.50  0.50  0.00
   5   5  0.00  1.00  0.00  1.00  0.00  0.00  0.00  0.00  1.00  0.50  0.50  0.00
   6   6  0.00 -1.00  0.00 -1.00  0.00  0.00  0.00  0.00  1.00  0.50  0.50  0.00
   7   8  0.00 -1.00  0.00  1.00  0.00  0.00  0.00  0.00 -1.00  0.00  0.00  0.00
   8   7  0.00  1.00  0.00 -1.00  0.00  0.00  0.00  0.00 -1.00  0.00  0.00  0.00

 DIRECT LATTICE VECTORS CARTESIAN COMPONENTS (ANGSTROM)
          X                    Y                    Z
   0.556500000000E+01   0.000000000000E+00   0.000000000000E+00
   0.000000000000E+00   0.556500000000E+01   0.000000000000E+00
   0.000000000000E+00   0.000000000000E+00   0.468400000000E+01


 CARTESIAN COORDINATES - PRIMITIVE CELL
 *******************************************************************************
 *      ATOM          X(ANGSTROM)         Y(ANGSTROM)         Z(ANGSTROM)
 *******************************************************************************
    1     6 C     0.000000000000E+00  2.782500000000E+00  1.526984000000E+00
    2     6 C     2.782500000000E+00  0.000000000000E+00 -1.526984000000E+00
    3     8 O     0.000000000000E+00  2.782500000000E+00 -1.895614800000E+00
    4     8 O     2.782500000000E+00  0.000000000000E+00  1.895614800000E+00
    5     7 N     8.119335000000E-01 -1.970566500000E+00  8.271944000000E-01
    6     7 N    -8.119335000000E-01  1.970566500000E+00  8.271944000000E-01
    7     7 N    -1.970566500000E+00 -8.119335000000E-01 -8.271944000000E-01
    8     7 N     1.970566500000E+00  8.119335000000E-01 -8.271944000000E-01
    9     1 H     1.432987500000E+00 -1.349512500000E+00  1.324166800000E+00
   10     1 H    -1.432987500000E+00  1.349512500000E+00  1.324166800000E+00
   11     1 H    -1.349512500000E+00 -1.432987500000E+00 -1.324166800000E+00
   12     1 H     1.349512500000E+00  1.432987500000E+00 -1.324166800000E+00
   13     1 H     8.019165000000E-01 -1.980583500000E+00 -1.779920000000E-01
   14     1 H    -8.019165000000E-01  1.980583500000E+00 -1.779920000000E-01
   15     1 H    -1.980583500000E+00 -8.019165000000E-01  1.779920000000E-01
   16     1 H     1.980583500000E+00  8.019165000000E-01  1.779920000000E-01

 *******************************************************************************
 LOCAL ATOMIC FUNCTIONS BASIS SET
 *******************************************************************************
   ATOM   X(AU)   Y(AU)   Z(AU)  N. TYPE  EXPONENT  S COEF   P COEF   D/F/G COEF
 *******************************************************************************
   1 C    0.000   5.258   2.886
                                  1 S  
                                         3.048E+03 1.826E-03 0.000E+00 0.000E+00
                                         4.564E+02 1.406E-02 0.000E+00 0.000E+00
                                         1.037E+02 6.876E-02 0.000E+00 0.000E+00
                                         2.923E+01 2.304E-01 0.000E+00 0.000E+00
                                         9.349E+00 4.685E-01 0.000E+00 0.000E+00
                                         3.189E+00 3.628E-01 0.000E+00 0.000E+00
                           2-     5 SP 
                                         3.665E+00-3.959E-01 2.365E-01 0.000E+00
                                         7.705E-01 1.216E+00 8.606E-01 0.000E+00
                           6-     9 SP 
                                         1.959E-01 1.000E+00 1.000E+00 0.000E+00
                          10-    14 D  
                                         8.000E-01 0.000E+00 0.000E+00 1.000E+00
   2 C    5.258   0.000  -2.886
   3 O    0.000   5.258  -3.582
                                 29 S  
                                         5.472E+03 1.832E-03 0.000E+00 0.000E+00
                                         8.178E+02 1.410E-02 0.000E+00 0.000E+00
                                         1.864E+02 6.863E-02 0.000E+00 0.000E+00
                                         5.302E+01 2.294E-01 0.000E+00 0.000E+00
                                         1.718E+01 4.664E-01 0.000E+00 0.000E+00
                                         5.912E+00 3.642E-01 0.000E+00 0.000E+00
                          30-    33 SP 
                                         7.403E+00-4.045E-01 2.446E-01 0.000E+00
                                         1.576E+00 1.222E+00 8.540E-01 0.000E+00
                          34-    37 SP 
                                         3.737E-01 1.000E+00 1.000E+00 0.000E+00
                          38-    42 D  
                                         8.000E-01 0.000E+00 0.000E+00 1.000E+00
   4 O    5.258   0.000   3.582
   5 N    1.534  -3.724   1.563
                                 57 S  
                                         4.150E+03 1.845E-03 0.000E+00 0.000E+00
                                         6.201E+02 1.416E-02 0.000E+00 0.000E+00
                                         1.417E+02 6.863E-02 0.000E+00 0.000E+00
                                         4.034E+01 2.286E-01 0.000E+00 0.000E+00
                                         1.303E+01 4.662E-01 0.000E+00 0.000E+00
                                         4.470E+00 3.657E-01 0.000E+00 0.000E+00
                          58-    61 SP 
                                         5.425E+00-4.133E-01 2.380E-01 0.000E+00
                                         1.149E+00 1.224E+00 8.590E-01 0.000E+00
                          62-    65 SP 
                                         2.832E-01 1.000E+00 1.000E+00 0.000E+00
                          66-    70 D  
                                         8.000E-01 0.000E+00 0.000E+00 1.000E+00
   6 N   -1.534   3.724   1.563
   7 N   -3.724  -1.534  -1.563
   8 N    3.724   1.534  -1.563
   9 H    2.708  -2.550   2.502
                                113 S  
                                         5.447E+00 1.563E-01 0.000E+00 0.000E+00
                                         8.245E-01 9.047E-01 0.000E+00 0.000E+00
                                114 S  
                                         1.832E-01 1.000E+00 0.000E+00 0.000E+00
                         115-   117 P  
                                         1.100E+00 0.000E+00 1.000E+00 0.000E+00
  10 H   -2.708   2.550   2.502
  11 H   -2.550  -2.708  -2.502
  12 H    2.550   2.708  -2.502
  13 H    1.515  -3.743  -0.336
  14 H   -1.515   3.743  -0.336
  15 H   -3.743  -1.515   0.336
  16 H    3.743   1.515   0.336
 INFORMATION **** SET_MPP **** PCRYSTAL CALCULATION
 INFORMATION **** READM2 **** NEW DEFAULT: FOCK/KS MATRIX MIXING SET TO 30 %
 INFORMATION **** READM2 **** NEW DEFAULT: FULL DIRECT SCF MODE
 INFORMATION **** READM2 **** NEW DEFAULT: COULOMB BIPOLAR BUFFER SET TO 32 Mb
 INFORMATION **** READM2 **** NEW DEFAULT: EXCHANGE BIPOLAR BUFFER SET TO 32 Mb
 INFORMATION **** PPAN ****  MULLIKEN POPULATION ANALYSIS AT THE END OF SCF
 *******************************************************************************
 N. OF ATOMS PER CELL        16  COULOMB OVERLAP TOL         (T1) 10**   -6
 NUMBER OF SHELLS            56  COULOMB PENETRATION TOL     (T2) 10**   -6
 NUMBER OF AO               152  EXCHANGE OVERLAP TOL        (T3) 10**   -6
 N. OF ELECTRONS PER CELL    64  EXCHANGE PSEUDO OVP (F(G))  (T4) 10**   -6
 CORE ELECTRONS PER CELL     16  EXCHANGE PSEUDO OVP (P(G))  (T5) 10**  -12
 N. OF SYMMETRY OPERATORS     8  POLE ORDER IN MONO ZONE                  4
 *******************************************************************************
 TYPE OF CALCULATION :  RESTRICTED CLOSED SHELL
 HARTREE-FOCK HAMILTONIAN

 CAPPA:IS1  2;IS2  2;IS3  2; K PTS MONK NET   6; SYMMOPS:K SPACE  16;G SPACE   8

 *******************************************************************************
 MAX NUMBER OF SCF CYCLES      50  CONVERGENCE ON DELTAP        10**-16
 WEIGHT OF F(I) IN F(I+1)      30% CONVERGENCE ON ENERGY        10**- 7
 SHRINK. FACT.(MONKH.)    2  2  2  NUMBER OF K POINTS IN THE IBZ      6
 SHRINKING FACTOR(GILAT NET)    2  NUMBER OF K POINTS(GILAT NET)      6
 *******************************************************************************
 *** K POINTS COORDINATES (OBLIQUE COORDINATES IN UNITS OF IS =  2)
   1-R(  0  0  0)   2-R(  1  0  0)   3-R(  1  1  0)   4-R(  0  0  1)
   5-R(  1  0  1)   6-R(  1  1  1)

 DIRECT LATTICE VECTORS COMPON. (A.U.)     RECIP. LATTICE VECTORS COMPON. (A.U.) 
        X            Y            Z              X            Y            Z
   10.5163259    0.0000000    0.0000000      0.5974696    0.0000000    0.0000000
    0.0000000   10.5163259    0.0000000      0.0000000    0.5974696    0.0000000
    0.0000000    0.0000000    8.8514772      0.0000000    0.0000000    0.7098460

 DISK SPACE FOR EIGENVECTORS (FTN 10)      138624 REALS

 SYMMETRY ADAPTION OF THE BLOCH FUNCTIONS ENABLED
 TTTTTTTTTTTTTTTTTTTTTTTTTTTTTT gordsh1     TELAPSE        0.02 TCPU        0.02

 MATRIX SIZE: P(G)  108364, F(G)   18098, P(G) IRR   10907, F(G) IRR    4245
 MAX G-VECTOR INDEX FOR 1- AND 2-ELECTRON INTEGRALS  81

 TTTTTTTTTTTTTTTTTTTTTTTTTTTTTT INPUT       TELAPSE        0.02 TCPU        0.02

 NEIGHBORS OF THE NON-EQUIVALENT ATOMS

 N = NUMBER OF NEIGHBORS AT DISTANCE R
    ATOM  N     R/ANG      R/AU   NEIGHBORS (ATOM LABELS AND CELL INDICES)
   1 C    1     1.2614     2.3837    3 O    0 0 1
   1 C    2     1.3447     2.5411    5 N    0 1 0    6 N    0 0 0
   1 C    2     2.0367     3.8488    9 H    0 1 0   10 H    0 0 0
   1 C    2     2.0477     3.8696   13 H    0 1 0   14 H    0 0 0
   1 C    2     2.6461     5.0004   11 H    0 1 1   12 H    0 0 1
   1 C    2     3.1089     5.8750   15 H    0 1 0   16 H    0 0 0

   3 O    1     1.2614     2.3837    1 C    0 0-1
   3 O    2     1.9922     3.7647   11 H    0 1 0   12 H    0 0 0
   3 O    2     2.0582     3.8895   13 H    0 1 0   14 H    0 0 0
   3 O    2     2.2726     4.2946    5 N    0 1-1    6 N    0 0-1
   3 O    2     2.5002     4.7246    9 H    0 1-1   10 H    0 0-1
   3 O    2     2.9550     5.5842    5 N    0 1 0    6 N    0 0 0

   5 N    1     1.0053     1.8997   13 H    0 0 0
   5 N    1     1.0092     1.9070    9 H    0 0 0
   5 N    1     1.3447     2.5411    1 C    0-1 0
   5 N    1     2.2726     4.2946    3 O    0-1 1
   5 N    1     2.2965     4.3397    6 N    0-1 0
   5 N    1     2.4939     4.7127   14 H    0-1 0

   9 H    1     1.0092     1.9070    5 N    0 0 0
   9 H    1     1.7473     3.3019   13 H    0 0 0
   9 H    1     1.9922     3.7647    4 O    0 0 0
   9 H    1     2.0367     3.8488    1 C    0-1 0
   9 H    2     2.4984     4.7214   15 H    1 0 0   16 H    0 0 0
   9 H    1     2.5002     4.7246    3 O    0-1 1

  13 H    1     1.0053     1.8997    5 N    0 0 0
  13 H    1     1.7473     3.3019    9 H    0 0 0
  13 H    1     2.0477     3.8696    1 C    0-1 0
  13 H    1     2.0582     3.8895    3 O    0-1 0
  13 H    1     2.2682     4.2862   14 H    0-1 0
  13 H    1     2.4939     4.7127    6 N    0-1 0


 SYMMETRY ALLOWED ELASTIC DISTORTION 1
  0.5773503  0.0000000  0.0000000
  0.0000000  0.5773503  0.0000000
  0.0000000  0.0000000  0.5773503

 SYMMETRY ALLOWED ELASTIC DISTORTION 2
  0.4082483  0.0000000  0.0000000
  0.0000000  0.4082483  0.0000000
  0.0000000  0.0000000 -0.8164966

 SYMMETRY ALLOWED INTERNAL DEGREE(S) OF FREEDOM:   8
 TTTTTTTTTTTTTTTTTTTTTTTTTTTTTT SYMM        TELAPSE        0.03 TCPU        0.03
 TTTTTTTTTTTTTTTTTTTTTTTTTTTTTT INT_SCREEN  TELAPSE        0.03 TCPU        0.03

 *******************************************************************************
 *                             OPTIMIZATION STARTS                             *
 *******************************************************************************
 RECLASIFICATION OF INDICES FOR INTEGRAL CALC ACCORDING TO DIFFERENT CRITERIA:
           FIXDELTE                  FIXDELTX              FIXDELTN
          0.10000000               0.80000000                 10
 DEFAULT MAX NUM OF POINTS  100
 *******************************************************************************

 *******************************************************************************
 COORDINATE AND CELL OPTIMIZATION - POINT    1
 INFORMATION **** EXCBUF **** EXCH. BIPO BUFFER: WORDS USED =      313479
 TTTTTTTTTTTTTTTTTTTTTTTTTTTTTT INT_CALC    TELAPSE        0.07 TCPU        0.06

 *******************************************************************************
 UREA BULK BASE 6-21 + POLARIZATION                                              
 CRYSTAL - SCF - TYPE OF CALCULATION :  RESTRICTED CLOSED SHELL
 *******************************************************************************

 CAPPA:IS1  2;IS2  2;IS3  2; K PTS MONK NET   6; SYMMOPS:K SPACE  16;G SPACE   8

 TTTTTTTTTTTTTTTTTTTTTTTTTTTTTT SDIK        TELAPSE        0.07 TCPU        0.07

 AAAAAAAAAAAAAAAAAAAAAAAAAAAAAAAAAAAAAAAAAAAAAAAAAAAAAAAAAAAAAAAAAAAAAAAAAAAAAAA
         ATOMIC WAVEFUNCTION(S)


 NUCLEAR CHARGE  6.0  SYMMETRY SPECIES            S    P
 N. ELECTRONS    6.0  NUMBER OF PRIMITIVE GTOS    9    3
                      NUMBER OF CONTRACTED GTOS   3    2
                      NUMBER OF CLOSED SHELLS     2    0
                      OPEN SHELL OCCUPATION       0    2

  ZNUC SCFIT  TOTAL HF ENERGY   KINETIC ENERGY   VIRIAL THEOREM ACCURACY
   6.0   9   -3.765831823E+01  3.765320062E+01 -2.000135914E+00  1.5E-06

 NUCLEAR CHARGE  8.0  SYMMETRY SPECIES            S    P
 N. ELECTRONS    8.0  NUMBER OF PRIMITIVE GTOS    9    3
                      NUMBER OF CONTRACTED GTOS   3    2
                      NUMBER OF CLOSED SHELLS     2    0
                      OPEN SHELL OCCUPATION       0    4

  ZNUC SCFIT  TOTAL HF ENERGY   KINETIC ENERGY   VIRIAL THEOREM ACCURACY
   8.0  10   -7.469910437E+01  7.469021188E+01 -2.000119058E+00  4.4E-06

 NUCLEAR CHARGE  7.0  SYMMETRY SPECIES            S    P
 N. ELECTRONS    7.0  NUMBER OF PRIMITIVE GTOS    9    3
                      NUMBER OF CONTRACTED GTOS   3    2
                      NUMBER OF CLOSED SHELLS     2    0
                      OPEN SHELL OCCUPATION       0    3

  ZNUC SCFIT  TOTAL HF ENERGY   KINETIC ENERGY   VIRIAL THEOREM ACCURACY
   7.0   8   -5.434075198E+01  5.432977783E+01 -2.000201992E+00  3.0E-06

 NUCLEAR CHARGE  1.0  SYMMETRY SPECIES            S
 N. ELECTRONS    1.0  NUMBER OF PRIMITIVE GTOS    3
                      NUMBER OF CONTRACTED GTOS   2
                      NUMBER OF CLOSED SHELLS     0
                      OPEN SHELL OCCUPATION       1

  ZNUC SCFIT  TOTAL HF ENERGY   KINETIC ENERGY   VIRIAL THEOREM ACCURACY
   1.0   1   -4.961986360E-01  5.144743151E-01 -1.964476984E+00  0.0E+00

 AAAAAAAAAAAAAAAAAAAAAAAAAAAAAAAAAAAAAAAAAAAAAAAAAAAAAAAAAAAAAAAAAAAAAAAAAAAAAAA

 CHARGE NORMALIZATION FACTOR   1.00000000
 TOTAL ATOMIC CHARGES:
   6.0000000   6.0000000   8.0000000   8.0000000   7.0000000   7.0000000
   7.0000000   7.0000000   1.0000000   1.0000000   1.0000000   1.0000000
   1.0000000   1.0000000   1.0000000   1.0000000
 TTTTTTTTTTTTTTTTTTTTTTTTTTTTTT MOQGAD      TELAPSE        0.09 TCPU        0.09
 TTTTTTTTTTTTTTTTTTTTTTTTTTTTTT SHELLXN     TELAPSE        4.97 TCPU        4.95
 TTTTTTTTTTTTTTTTTTTTTTTTTTTTTT MONMO3      TELAPSE        5.11 TCPU        5.10
 CYC   0 ETOT(AU) -4.500026138195E+02 DETOT -4.50E+02 tst  0.00E+00 PX  1.00E+00
 TTTTTTTTTTTTTTTTTTTTTTTTTTTTTT DIIS        TELAPSE        5.11 TCPU        5.10
 TTTTTTTTTTTTTTTTTTTTTTTTTTTTTT FDIK        TELAPSE        5.13 TCPU        5.12
 INSULATING STATE
 TOP OF VALENCE BANDS -    BAND     32; K    1; EIG -2.7358164E-01 AU
 BOTTOM OF VIRTUAL BANDS - BAND     33; K    1; EIG  7.9920254E-02 AU
 DIRECT ENERGY BAND GAP:   9.6193 eV
 TTTTTTTTTTTTTTTTTTTTTTTTTTTTTT PDIG        TELAPSE        5.14 TCPU        5.13
 CHARGE NORMALIZATION FACTOR   1.00000000
 TOTAL ATOMIC CHARGES:
   4.6093562   4.6093562   8.9787727   8.9787727   7.7761433   7.7761433
   7.7761433   7.7761433   0.7149629   0.7149629   0.7149629   0.7149629
   0.7148294   0.7148294   0.7148294   0.7148294
 TTTTTTTTTTTTTTTTTTTTTTTTTTTTTT MOQGAD      TELAPSE        5.15 TCPU        5.14
 TTTTTTTTTTTTTTTTTTTTTTTTTTTTTT SHELLXN     TELAPSE       10.26 TCPU       10.22
 TTTTTTTTTTTTTTTTTTTTTTTTTTTTTT MONMO3      TELAPSE       10.40 TCPU       10.37
 CYC   1 ETOT(AU) -4.475369147871E+02 DETOT  2.47E+00 tst  0.00E+00 PX  1.00E+00
 TTTTTTTTTTTTTTTTTTTTTTTTTTTTTT DIIS        TELAPSE       10.40 TCPU       10.37
 DIIS TEST: 0.89910E+00 AT SCF   CYCLE   1 - MIX   30 %
 TTTTTTTTTTTTTTTTTTTTTTTTTTTTTT FDIK        TELAPSE       10.41 TCPU       10.38
 INSULATING STATE
 TOP OF VALENCE BANDS -    BAND     32; K    1; EIG -3.5468526E-01 AU
 BOTTOM OF VIRTUAL BANDS - BAND     33; K    1; EIG  1.6990344E-01 AU
 DIRECT ENERGY BAND GAP:  14.2748 eV
 TTTTTTTTTTTTTTTTTTTTTTTTTTTTTT PDIG        TELAPSE       10.42 TCPU       10.39
 CHARGE NORMALIZATION FACTOR   1.00000000
 TOTAL ATOMIC CHARGES:
   4.8992340   4.8992340   8.7250192   8.7250192   7.7374274   7.7374274
   7.7374274   7.7374274   0.7258694   0.7258694   0.7258694   0.7258694
   0.7245766   0.7245766   0.7245766   0.7245766
 TTTTTTTTTTTTTTTTTTTTTTTTTTTTTT MOQGAD      TELAPSE       10.46 TCPU       10.43
 TTTTTTTTTTTTTTTTTTTTTTTTTTTTTT SHELLXN     TELAPSE       15.10 TCPU       15.06
 TTTTTTTTTTTTTTTTTTTTTTTTTTTTTT MONMO3      TELAPSE       15.33 TCPU       15.29
 CYC   2 ETOT(AU) -4.476643991640E+02 DETOT -1.27E-01 tst  2.95E-03 PX  7.55E-02
 TTTTTTTTTTTTTTTTTTTTTTTTTTTTTT DIIS        TELAPSE       15.33 TCPU       15.30
 DIIS TEST: 0.95671E-01 AT SCF   CYCLE   2 - DIIS ACTIVE - HISTORY:     2 CYCLES
 TTTTTTTTTTTTTTTTTTTTTTTTTTTTTT FDIK        TELAPSE       15.34 TCPU       15.30
 INSULATING STATE
 TOP OF VALENCE BANDS -    BAND     32; K    1; EIG -3.8217478E-01 AU
 BOTTOM OF VIRTUAL BANDS - BAND     33; K    1; EIG  2.0063537E-01 AU
 DIRECT ENERGY BAND GAP:  15.8591 eV
 TTTTTTTTTTTTTTTTTTTTTTTTTTTTTT PDIG        TELAPSE       15.35 TCPU       15.31
 CHARGE NORMALIZATION FACTOR   1.00000000
 TOTAL ATOMIC CHARGES:
   4.8013989   4.8013989   8.8014397   8.8014397   7.7407042   7.7407042
   7.7407042   7.7407042   0.7290867   0.7290867   0.7290867   0.7290867
   0.7287898   0.7287898   0.7287898   0.7287898
 TTTTTTTTTTTTTTTTTTTTTTTTTTTTTT MOQGAD      TELAPSE       15.36 TCPU       15.33
 TTTTTTTTTTTTTTTTTTTTTTTTTTTTTT SHELLXN     TELAPSE       20.36 TCPU       20.32
 TTTTTTTTTTTTTTTTTTTTTTTTTTTTTT MONMO3      TELAPSE       20.51 TCPU       20.47
 CYC   3 ETOT(AU) -4.476793152223E+02 DETOT -1.49E-02 tst  3.21E-04 PX  2.91E-02
 TTTTTTTTTTTTTTTTTTTTTTTTTTTTTT DIIS        TELAPSE       20.52 TCPU       20.47
 DIIS TEST: 0.10039E-01 AT SCF   CYCLE   3 - DIIS ACTIVE - HISTORY:     3 CYCLES
 TTTTTTTTTTTTTTTTTTTTTTTTTTTTTT FDIK        TELAPSE       20.58 TCPU       20.49
 INSULATING STATE
 TOP OF VALENCE BANDS -    BAND     32; K    1; EIG -3.8596607E-01 AU
 BOTTOM OF VIRTUAL BANDS - BAND     33; K    1; EIG  2.0703012E-01 AU
 DIRECT ENERGY BAND GAP:  16.1363 eV
 TTTTTTTTTTTTTTTTTTTTTTTTTTTTTT PDIG        TELAPSE       20.60 TCPU       20.50
 CHARGE NORMALIZATION FACTOR   1.00000000
 TOTAL ATOMIC CHARGES:
   4.7999229   4.7999229   8.7757722   8.7757722   7.7560077   7.7560077
   7.7560077   7.7560077   0.7281941   0.7281941   0.7281941   0.7281941
   0.7279506   0.7279506   0.7279506   0.7279506
 TTTTTTTTTTTTTTTTTTTTTTTTTTTTTT MOQGAD      TELAPSE       20.62 TCPU       20.52
 TTTTTTTTTTTTTTTTTTTTTTTTTTTTTT SHELLXN     TELAPSE       25.31 TCPU       25.22
 TTTTTTTTTTTTTTTTTTTTTTTTTTTTTT MONMO3      TELAPSE       25.46 TCPU       25.36
 CYC   4 ETOT(AU) -4.476810880164E+02 DETOT -1.77E-03 tst  6.81E-05 PX  8.65E-03
 TTTTTTTTTTTTTTTTTTTTTTTTTTTTTT DIIS        TELAPSE       25.46 TCPU       25.36
 DIIS TEST: 0.85232E-03 AT SCF   CYCLE   4 - DIIS ACTIVE - HISTORY:     4 CYCLES
 TTTTTTTTTTTTTTTTTTTTTTTTTTTTTT FDIK        TELAPSE       25.47 TCPU       25.37
 INSULATING STATE
 TOP OF VALENCE BANDS -    BAND     32; K    1; EIG -3.8352632E-01 AU
 BOTTOM OF VIRTUAL BANDS - BAND     33; K    1; EIG  2.0757133E-01 AU
 DIRECT ENERGY BAND GAP:  16.0846 eV
 TTTTTTTTTTTTTTTTTTTTTTTTTTTTTT PDIG        TELAPSE       25.48 TCPU       25.38
 CHARGE NORMALIZATION FACTOR   1.00000000
 TOTAL ATOMIC CHARGES:
   4.8043189   4.8043189   8.7810261   8.7810261   7.7487489   7.7487489
   7.7487489   7.7487489   0.7295143   0.7295143   0.7295143   0.7295143
   0.7290643   0.7290643   0.7290643   0.7290643
 TTTTTTTTTTTTTTTTTTTTTTTTTTTTTT MOQGAD      TELAPSE       25.49 TCPU       25.39
 TTTTTTTTTTTTTTTTTTTTTTTTTTTTTT SHELLXN     TELAPSE       30.36 TCPU       30.26
 TTTTTTTTTTTTTTTTTTTTTTTTTTTTTT MONMO3      TELAPSE       30.61 TCPU       30.50
 CYC   5 ETOT(AU) -4.476812240969E+02 DETOT -1.36E-04 tst  3.65E-06 PX  3.48E-03
 TTTTTTTTTTTTTTTTTTTTTTTTTTTTTT DIIS        TELAPSE       30.61 TCPU       30.51
 DIIS TEST: 0.43158E-04 AT SCF   CYCLE   5 - DIIS ACTIVE - HISTORY:     5 CYCLES
 TTTTTTTTTTTTTTTTTTTTTTTTTTTTTT FDIK        TELAPSE       30.62 TCPU       30.51
 INSULATING STATE
 TOP OF VALENCE BANDS -    BAND     32; K    1; EIG -3.8428964E-01 AU
 BOTTOM OF VIRTUAL BANDS - BAND     33; K    1; EIG  2.0745658E-01 AU
 DIRECT ENERGY BAND GAP:  16.1022 eV
 TTTTTTTTTTTTTTTTTTTTTTTTTTTTTT PDIG        TELAPSE       30.63 TCPU       30.52
 CHARGE NORMALIZATION FACTOR   1.00000000
 TOTAL ATOMIC CHARGES:
   4.8038816   4.8038816   8.7797379   8.7797379   7.7492903   7.7492903
   7.7492903   7.7492903   0.7296702   0.7296702   0.7296702   0.7296702
   0.7292298   0.7292298   0.7292298   0.7292298
 TTTTTTTTTTTTTTTTTTTTTTTTTTTTTT MOQGAD      TELAPSE       30.64 TCPU       30.54
 TTTTTTTTTTTTTTTTTTTTTTTTTTTTTT SHELLXN     TELAPSE       35.13 TCPU       35.02
 TTTTTTTTTTTTTTTTTTTTTTTTTTTTTT MONMO3      TELAPSE       35.28 TCPU       35.17
 CYC   6 ETOT(AU) -4.476812435727E+02 DETOT -1.95E-05 tst  1.40E-06 PX  7.92E-04
 TTTTTTTTTTTTTTTTTTTTTTTTTTTTTT DIIS        TELAPSE       35.29 TCPU       35.18
 DIIS TEST: 0.41718E-05 AT SCF   CYCLE   6 - DIIS ACTIVE - HISTORY:     6 CYCLES
 TTTTTTTTTTTTTTTTTTTTTTTTTTTTTT FDIK        TELAPSE       35.30 TCPU       35.18
 INSULATING STATE
 TOP OF VALENCE BANDS -    BAND     32; K    1; EIG -3.8441508E-01 AU
 BOTTOM OF VIRTUAL BANDS - BAND     33; K    1; EIG  2.0746009E-01 AU
 DIRECT ENERGY BAND GAP:  16.1057 eV
 TTTTTTTTTTTTTTTTTTTTTTTTTTTTTT PDIG        TELAPSE       35.30 TCPU       35.19
 CHARGE NORMALIZATION FACTOR   1.00000000
 TOTAL ATOMIC CHARGES:
   4.8039520   4.8039520   8.7795727   8.7795727   7.7490333   7.7490333
   7.7490333   7.7490333   0.7298448   0.7298448   0.7298448   0.7298448
   0.7293596   0.7293596   0.7293596   0.7293596
 TTTTTTTTTTTTTTTTTTTTTTTTTTTTTT MOQGAD      TELAPSE       35.32 TCPU       35.21
 TTTTTTTTTTTTTTTTTTTTTTTTTTTTTT SHELLXN     TELAPSE       40.27 TCPU       40.16
 TTTTTTTTTTTTTTTTTTTTTTTTTTTTTT MONMO3      TELAPSE       40.45 TCPU       40.34
 CYC   7 ETOT(AU) -4.476812459571E+02 DETOT -2.38E-06 tst  2.99E-07 PX  4.02E-04
 TTTTTTTTTTTTTTTTTTTTTTTTTTTTTT DIIS        TELAPSE       40.46 TCPU       40.34
 DIIS TEST: 0.20742E-06 AT SCF   CYCLE   7 - DIIS ACTIVE - HISTORY:     7 CYCLES
 TTTTTTTTTTTTTTTTTTTTTTTTTTTTTT FDIK        TELAPSE       40.47 TCPU       40.35
 INSULATING STATE
 TOP OF VALENCE BANDS -    BAND     32; K    1; EIG -3.8440557E-01 AU
 BOTTOM OF VIRTUAL BANDS - BAND     33; K    1; EIG  2.0747790E-01 AU
 DIRECT ENERGY BAND GAP:  16.1060 eV
 TTTTTTTTTTTTTTTTTTTTTTTTTTTTTT PDIG        TELAPSE       40.47 TCPU       40.36
 CHARGE NORMALIZATION FACTOR   1.00000000
 TOTAL ATOMIC CHARGES:
   4.8039276   4.8039276   8.7795358   8.7795358   7.7489878   7.7489878
   7.7489878   7.7489878   0.7298908   0.7298908   0.7298908   0.7298908
   0.7293897   0.7293897   0.7293897   0.7293897
 TTTTTTTTTTTTTTTTTTTTTTTTTTTTTT MOQGAD      TELAPSE       40.49 TCPU       40.37
 TTTTTTTTTTTTTTTTTTTTTTTTTTTTTT SHELLXN     TELAPSE       46.70 TCPU       46.53
 TTTTTTTTTTTTTTTTTTTTTTTTTTTTTT MONMO3      TELAPSE       46.85 TCPU       46.68
 CYC   8 ETOT(AU) -4.476812459356E+02 DETOT  2.15E-08 tst  1.84E-08 PX  9.13E-05
 TTTTTTTTTTTTTTTTTTTTTTTTTTTTTT DIIS        TELAPSE       46.86 TCPU       46.69
 DIIS TEST: 0.13743E-07 AT SCF   CYCLE   8 - DIIS ACTIVE - HISTORY:     8 CYCLES
 TTTTTTTTTTTTTTTTTTTTTTTTTTTTTT FDIK        TELAPSE       46.86 TCPU       46.70
 INSULATING STATE
 TOP OF VALENCE BANDS -    BAND     32; K    1; EIG -3.8441552E-01 AU
 BOTTOM OF VIRTUAL BANDS - BAND     33; K    1; EIG  2.0747544E-01 AU
 DIRECT ENERGY BAND GAP:  16.1062 eV
 TTTTTTTTTTTTTTTTTTTTTTTTTTTTTT PDIG        TELAPSE       46.87 TCPU       46.70
 CHARGE NORMALIZATION FACTOR   1.00000000
 TOTAL ATOMIC CHARGES:
   4.8039129   4.8039129   8.7795430   8.7795430   7.7489950   7.7489950
   7.7489950   7.7489950   0.7298925   0.7298925   0.7298925   0.7298925
   0.7293845   0.7293845   0.7293845   0.7293845
 TTTTTTTTTTTTTTTTTTTTTTTTTTTTTT MOQGAD      TELAPSE       46.89 TCPU       46.72
 TTTTTTTTTTTTTTTTTTTTTTTTTTTTTT SHELLXN     TELAPSE       51.52 TCPU       51.35
 +++ ENERGIES IN A.U. +++
 ::: EXT EL-POLE                                  -5.9275585933726E+02
 ::: EXT EL-SPHEROPOLE                             7.1541035584449E+00
 ::: BIELET ZONE E-E                               6.8312290935791E+02
 ::: TOTAL E-E                                     9.7521153579093E+01
 ::: TOTAL E-N + N-E                              -9.1688701817608E+02
 ::: TOTAL N-N                                    -7.5336138747023E+01
 ::: KINETIC ENERGY                                4.4702075734532E+02
 ::: TOTAL   ENERGY                               -4.4768124599869E+02
 ::: VIRIAL COEFFICIENT                            9.9926177805471E-01
 TTTTTTTTTTTTTTTTTTTTTTTTTTTTTT MONMO3      TELAPSE       51.67 TCPU       51.49
 CYC   9 ETOT(AU) -4.476812459987E+02 DETOT -6.31E-08 tst  6.13E-10 PX  9.13E-05

 == SCF ENDED - CONVERGENCE ON ENERGY      E(AU) -4.4768124599869E+02 CYCLES   9

 TOTAL ENERGY(HF)(AU)(   9) -4.4768124599869E+02 DE-6.3E-08 tst 6.1E-10 PX 9.1E-05

 *******************************************************************************
 *                             FORCE CALCULATION                               *
 *******************************************************************************

 INFORMATION **** EXCPOG **** EXCH. BIPO BUFFER LENGTH (WORDS) =     1253916
 INFORMATION **** GENPOG **** BIPO BUFFER LENGTH (WORDS) =      288800
 TTTTTTTTTTTTTTTTTTTTTTTTTTTTTT SHELXG      TELAPSE       88.54 TCPU       88.33

 CARTESIAN FORCES IN HARTREE/BOHR (ANALYTICAL)
   ATOM                     X                   Y                   Z
   1   6             2.081668171172E-16  7.494005416220E-16  3.742600734433E-03
   2   6            -2.303712776097E-15 -1.998401444325E-15 -3.742600734419E-03
   3   8             4.024558464266E-16  7.771561172376E-16 -2.393529598310E-02
   4   8            -5.551115123126E-16 -1.498801083244E-15  2.393529598308E-02
   5   7            -4.786700450568E-03 -4.786700450565E-03  5.572981836958E-03
   6   7             4.786700450569E-03  4.786700450566E-03  5.572981836962E-03
   7   7            -4.786700450564E-03  4.786700450564E-03 -5.572981836958E-03
   8   7             4.786700450566E-03 -4.786700450564E-03 -5.572981836958E-03
   9   1            -6.833574012728E-03 -6.833574012729E-03 -6.470768104897E-03
  10   1             6.833574012728E-03  6.833574012728E-03 -6.470768104897E-03
  11   1            -6.833574012728E-03  6.833574012728E-03  6.470768104897E-03
  12   1             6.833574012727E-03 -6.833574012727E-03  6.470768104896E-03
  13   1            -3.619518487411E-04 -3.619518487414E-04  9.021539892572E-03
  14   1             3.619518487407E-04  3.619518487416E-04  9.021539892573E-03
  15   1            -3.619518487394E-04  3.619518487423E-04 -9.021539892573E-03
  16   1             3.619518487409E-04 -3.619518487410E-04 -9.021539892573E-03

 RESULTANT FORCE     4.163336342344E-16 -2.775557561563E-17  3.885780586188E-15

 ATOMIC PART

 SYMMETRY ALLOWED FORCES (ANALYTICAL) (DIRECTION, FORCE)

    1  5.2928367E-03    2 -3.3849620E-02    3 -1.3538833E-02    4  1.1145964E-02
    5 -1.9328266E-02    6 -1.2941536E-02    7 -1.0237544E-03    8  1.8043080E-02

 CELL PART

 GRADIENT WITH RESPECT TO THE CELL PARAMETER IN HARTREE/BOHR
ORDER: -D/DA1X, -D/DA1Y, -D/DA1Z
       -D/DA2X, -D/DA2Y, -D/DA2Z
       -D/DA3X, -D/DA3Y, -D/DA3Z
 -0.751593336091E-02  0.615425974014E-16  0.692730604139E-15
  0.771051699372E-15 -0.751593336091E-02 -0.770072627718E-15
  0.713242318442E-15  0.257763678614E-15 -0.249721345866E-01

STRESS TENSOR, IN HARTREE/BOHR^3:
ORDER: 11 12 13
       21 22 23
       31 32 33
  0.807426738736E-04 -0.828330599974E-17 -0.644924725285E-17
 -0.661143950153E-18  0.807426738737E-04 -0.233073901142E-17
 -0.744191287581E-17  0.827278796300E-17  0.225801899601E-03

STRESS TENSOR DOES NOT CORRESPOND TO
HYDROSTATIC PRESSURE, NO PRESSURE COMPUTED!

 SYMMETRY ALLOWED FORCES (ANALYTICAL) (DIRECTION, FORCE)

    1 -1.9613474E-02    2  1.1532896E-02
 TTTTTTTTTTTTTTTTTTTTTTTTTTTTTT TOTGRA_C    TELAPSE       93.16 TCPU       92.96
 INFORMATION **** optc001 **** GEOMETRY OUTPUT FILE
 CLASSICAL MODEL (SCHLEGEL) USED AS INITIAL HESSIAN MATRIX
 REFERENCE GEOMETRY DEFINED

 MAX GRADIENT      0.033850  THRESHOLD              0.000450 CONVERGED NO
 RMS GRADIENT      0.016931  THRESHOLD              0.000300 CONVERGED NO

 GRADIENT NORM     0.053542  GRADIENT THRESHOLD     0.500000

 EIGENVALUES OF THE ESTIMATED HESSIAN
  0.2392E-01  0.2843E-01  0.8975E-01  0.1120      0.1767      0.3127    
  0.5401       1.088       1.303       1.772    

 INITIAL TRUST RADIUS    0.5000000000E+00

 PREDICTED ENERGY CHANGE    -0.295E-02

 INITIAL DISPLACEMENTS
 -0.007551 -0.032979 -0.060216  0.010743 -0.090856 -0.003978 -0.047358  0.021518
 -0.054052  0.051390
 TTTTTTTTTTTTTTTTTTTTTTTTTTTTTT OPTI        TELAPSE       93.17 TCPU       92.96

 OPTOPTOPTOPTOPTOPTOPTOPTOPTOPTOPTOPTOPTOPTOPTOPTOPTOPTOPTOPTOPTOPTOPTOPTOPTOPT

 - INFORMATION ON SCF MOVED TO SCFOUT.LOG
 GEOMETRY OPTIMIZATION INFORMATION STORED IN OPTINFO.DAT

 OPTOPTOPTOPTOPTOPTOPTOPTOPTOPTOPTOPTOPTOPTOPTOPTOPTOPTOPTOPTOPTOPTOPTOPTOPTOPT
 *******************************************************************************
 COORDINATE AND CELL OPTIMIZATION - POINT    2
 *******************************************************************************
 LATTICE PARAMETERS (ANGSTROMS AND DEGREES) - BOHR = 0.5291772083 ANGSTROM
 PRIMITIVE CELL - CENTRING CODE 1/0 VOLUME=   143.844447 - DENSITY  1.386 g/cm^3
         A              B              C           ALPHA      BETA       GAMMA 
     5.56105183     5.56105183     4.65135209    90.000000  90.000000  90.000000
 *******************************************************************************
 ATOMS IN THE ASYMMETRIC UNIT    5 - ATOMS IN THE UNIT CELL:   16
     ATOM                 X/A                 Y/B                 Z/C    
 *******************************************************************************
      1 T   6 C     0.000000000000E+00 -5.000000000000E-01  3.253967956875E-01
      2 F   6 C     5.000000000000E-01  0.000000000000E+00 -3.253967956875E-01
      3 T   8 O     0.000000000000E+00 -5.000000000000E-01 -4.073345245037E-01
      4 F   8 O     5.000000000000E-01  0.000000000000E+00  4.073345245037E-01
      5 T   7 N     1.438755555261E-01 -3.561244444739E-01  1.772068701389E-01
      6 F   7 N    -1.438755555261E-01  3.561244444739E-01  1.772068701389E-01
      7 F   7 N    -3.561244444739E-01 -1.438755555261E-01 -1.772068701389E-01
      8 F   7 N     3.561244444739E-01  1.438755555261E-01 -1.772068701389E-01
      9 T   1 H     2.544454627283E-01 -2.455545372717E-01  2.824753131907E-01
     10 F   1 H    -2.544454627283E-01  2.455545372717E-01  2.824753131907E-01
     11 F   1 H    -2.455545372717E-01 -2.544454627283E-01 -2.824753131907E-01
     12 F   1 H     2.455545372717E-01  2.544454627283E-01 -2.824753131907E-01
     13 T   1 H     1.425078635717E-01 -3.574921364283E-01 -3.678447281727E-02
     14 F   1 H    -1.425078635717E-01  3.574921364283E-01 -3.678447281727E-02
     15 F   1 H    -3.574921364283E-01 -1.425078635717E-01  3.678447281727E-02
     16 F   1 H     3.574921364283E-01  1.425078635717E-01  3.678447281727E-02

 T = ATOM BELONGING TO THE ASYMMETRIC UNIT

 TOTAL ENERGY(HF)(AU)(   8) -4.4768347983606E+02     DE (AU)   -2.234E-03

 UPDATED TRUST RADIUS     0.100E+01

 SYMMETRY ALLOWED FORCES  (COORDINATE, FORCE)

    1  4.3512923E-03    2  6.6464431E-03    3  1.3254403E-02    4 -7.4915084E-03
    5 -1.5614825E-03    6 -2.8222697E-03    7 -4.8227673E-04    8 -1.1041834E-03
    9  8.8749945E-03   10 -3.1692389E-03

 GRADIENT NORM     0.019889  GRADIENT THRESHOLD     0.500000

 EIGENVALUES OF THE ESTIMATED HESSIAN
  0.2350E-01  0.2789E-01  0.9117E-01  0.1116      0.2079      0.3082    
  0.5744       1.184       1.286       1.746    

 PREDICTED ENERGY CHANGE    -0.435E-03

 MAX GRADIENT      0.013254  THRESHOLD              0.000450 CONVERGED NO
 RMS GRADIENT      0.006289  THRESHOLD              0.000300 CONVERGED NO
 MAX DISPLAC.      0.096058  THRESHOLD              0.001800 CONVERGED NO
 RMS DISPLAC.      0.034171  THRESHOLD              0.001200 CONVERGED NO
 TTTTTTTTTTTTTTTTTTTTTTTTTTTTTT OPTI        TELAPSE      221.28 TCPU      218.17
 *******************************************************************************
 COORDINATE AND CELL OPTIMIZATION - POINT    3
 *******************************************************************************
 LATTICE PARAMETERS (ANGSTROMS AND DEGREES) - BOHR = 0.5291772083 ANGSTROM
 PRIMITIVE CELL - CENTRING CODE 1/0 VOLUME=   145.999347 - DENSITY  1.366 g/cm^3
         A              B              C           ALPHA      BETA       GAMMA 
     5.59301588     5.59301588     4.66722575    90.000000  90.000000  90.000000
 *******************************************************************************
 ATOMS IN THE ASYMMETRIC UNIT    5 - ATOMS IN THE UNIT CELL:   16
     ATOM                 X/A                 Y/B                 Z/C    
 *******************************************************************************
      1 T   6 C     0.000000000000E+00  5.000000000000E-01  3.260171716556E-01
      2 F   6 C     5.000000000000E-01  0.000000000000E+00 -3.260171716556E-01
      3 T   8 O     0.000000000000E+00  5.000000000000E-01 -4.068577287913E-01
      4 F   8 O     5.000000000000E-01  0.000000000000E+00  4.068577287913E-01
      5 T   7 N     1.434993493086E-01 -3.565006506914E-01  1.769298296939E-01
      6 F   7 N    -1.434993493086E-01  3.565006506914E-01  1.769298296939E-01
      7 F   7 N    -3.565006506914E-01 -1.434993493086E-01 -1.769298296939E-01
      8 F   7 N     3.565006506914E-01  1.434993493086E-01 -1.769298296939E-01
      9 T   1 H     2.536431987387E-01 -2.463568012613E-01  2.809216065970E-01
     10 F   1 H    -2.536431987387E-01  2.463568012613E-01  2.809216065970E-01
     11 F   1 H    -2.463568012613E-01 -2.536431987387E-01 -2.809216065970E-01
     12 F   1 H     2.463568012613E-01  2.536431987387E-01 -2.809216065970E-01
     13 T   1 H     1.417924355154E-01 -3.582075644846E-01 -3.635431444855E-02
     14 F   1 H    -1.417924355154E-01  3.582075644846E-01 -3.635431444855E-02
     15 F   1 H    -3.582075644846E-01 -1.417924355154E-01  3.635431444855E-02
     16 F   1 H     3.582075644846E-01  1.417924355154E-01  3.635431444855E-02

 T = ATOM BELONGING TO THE ASYMMETRIC UNIT

 TOTAL ENERGY(HF)(AU)(   7) -4.4768404575746E+02     DE (AU)   -5.659E-04

 UPDATED TRUST RADIUS     0.200E+01

 SYMMETRY ALLOWED FORCES  (COORDINATE, FORCE)

    1  3.3733271E-03    2 -4.3498109E-03    3  1.0797836E-03    4 -1.7926525E-05
    5 -7.4429868E-04    6 -1.2578771E-03    7 -1.1706266E-03    8 -1.0427282E-03
    9  2.0426193E-03   10 -2.2011509E-04

 GRADIENT NORM     0.006347  GRADIENT THRESHOLD     0.500000

 EIGENVALUES OF THE ESTIMATED HESSIAN
  0.1595E-01  0.2705E-01  0.8868E-01  0.1044      0.2109      0.3125    
  0.5833       1.248       1.388       1.748    

 PREDICTED ENERGY CHANGE    -0.169E-03

 MAX GRADIENT      0.004350  THRESHOLD              0.000450 CONVERGED NO
 RMS GRADIENT      0.002007  THRESHOLD              0.000300 CONVERGED NO
 MAX DISPLAC.      0.103713  THRESHOLD              0.001800 CONVERGED NO
 RMS DISPLAC.      0.041522  THRESHOLD              0.001200 CONVERGED NO
 TTTTTTTTTTTTTTTTTTTTTTTTTTTTTT OPTI        TELAPSE      340.69 TCPU      331.72
 *******************************************************************************
 COORDINATE AND CELL OPTIMIZATION - POINT    4
 *******************************************************************************
 LATTICE PARAMETERS (ANGSTROMS AND DEGREES) - BOHR = 0.5291772083 ANGSTROM
 PRIMITIVE CELL - CENTRING CODE 1/0 VOLUME=   148.361055 - DENSITY  1.344 g/cm^3
         A              B              C           ALPHA      BETA       GAMMA 
     5.63149326     5.63149326     4.67813527    90.000000  90.000000  90.000000
 *******************************************************************************
 ATOMS IN THE ASYMMETRIC UNIT    5 - ATOMS IN THE UNIT CELL:   16
     ATOM                 X/A                 Y/B                 Z/C    
 *******************************************************************************
      1 T   6 C     0.000000000000E+00 -5.000000000000E-01  3.258897241574E-01
      2 F   6 C    -5.000000000000E-01  0.000000000000E+00 -3.258897241574E-01
      3 T   8 O     0.000000000000E+00 -5.000000000000E-01 -4.078561264712E-01
      4 F   8 O    -5.000000000000E-01  0.000000000000E+00  4.078561264712E-01
      5 T   7 N     1.425702910109E-01 -3.574297089891E-01  1.763447048544E-01
      6 F   7 N    -1.425702910109E-01  3.574297089891E-01  1.763447048544E-01
      7 F   7 N    -3.574297089891E-01 -1.425702910109E-01 -1.763447048544E-01
      8 F   7 N     3.574297089891E-01  1.425702910109E-01 -1.763447048544E-01
      9 T   1 H     2.521725895040E-01 -2.478274104960E-01  2.794960727861E-01
     10 F   1 H    -2.521725895040E-01  2.478274104960E-01  2.794960727861E-01
     11 F   1 H    -2.478274104960E-01 -2.521725895040E-01 -2.794960727861E-01
     12 F   1 H     2.478274104960E-01  2.521725895040E-01 -2.794960727861E-01
     13 T   1 H     1.404937020095E-01 -3.595062979905E-01 -3.661677160755E-02
     14 F   1 H    -1.404937020095E-01  3.595062979905E-01 -3.661677160755E-02
     15 F   1 H    -3.595062979905E-01 -1.404937020095E-01  3.661677160755E-02
     16 F   1 H     3.595062979905E-01  1.404937020095E-01  3.661677160755E-02

 T = ATOM BELONGING TO THE ASYMMETRIC UNIT

 TOTAL ENERGY(HF)(AU)(   7) -4.4768428746857E+02     DE (AU)   -2.417E-04

 UPDATED TRUST RADIUS     0.400E+01

 SYMMETRY ALLOWED FORCES  (COORDINATE, FORCE)

    1  1.0858889E-03    2 -4.1884579E-03    3 -7.8034419E-04    4  5.9275093E-04
    5 -1.1953094E-03    6 -9.8547222E-04    7 -9.7273842E-04    8  4.6748013E-04
    9 -6.7556070E-04   10  4.1842643E-04

 GRADIENT NORM     0.004887  GRADIENT THRESHOLD     0.500000

 EIGENVALUES OF THE ESTIMATED HESSIAN
  0.1035E-01  0.2658E-01  0.8704E-01  0.1001      0.2185      0.3110    
  0.6190       1.233       1.385       1.708    

 PREDICTED ENERGY CHANGE    -0.662E-04

 MAX GRADIENT      0.004188  THRESHOLD              0.000450 CONVERGED NO
 RMS GRADIENT      0.001545  THRESHOLD              0.000300 CONVERGED NO
 MAX DISPLAC.      0.065177  THRESHOLD              0.001800 CONVERGED NO
 RMS DISPLAC.      0.030907  THRESHOLD              0.001200 CONVERGED NO
 TTTTTTTTTTTTTTTTTTTTTTTTTTTTTT OPTI        TELAPSE      447.79 TCPU      436.82
 *******************************************************************************
 COORDINATE AND CELL OPTIMIZATION - POINT    5
 *******************************************************************************
 LATTICE PARAMETERS (ANGSTROMS AND DEGREES) - BOHR = 0.5291772083 ANGSTROM
 PRIMITIVE CELL - CENTRING CODE 1/0 VOLUME=   149.866285 - DENSITY  1.330 g/cm^3
         A              B              C           ALPHA      BETA       GAMMA 
     5.65706573     5.65706573     4.68297127    90.000000  90.000000  90.000000
 *******************************************************************************
 ATOMS IN THE ASYMMETRIC UNIT    5 - ATOMS IN THE UNIT CELL:   16
     ATOM                 X/A                 Y/B                 Z/C    
 *******************************************************************************
      1 T   6 C     0.000000000000E+00 -5.000000000000E-01  3.251293248374E-01
      2 F   6 C     5.000000000000E-01  0.000000000000E+00 -3.251293248374E-01
      3 T   8 O     0.000000000000E+00 -5.000000000000E-01 -4.092616445812E-01
      4 F   8 O     5.000000000000E-01  0.000000000000E+00  4.092616445812E-01
      5 T   7 N     1.418067929299E-01 -3.581932070701E-01  1.753237829938E-01
      6 F   7 N    -1.418067929299E-01  3.581932070701E-01  1.753237829938E-01
      7 F   7 N    -3.581932070701E-01 -1.418067929299E-01 -1.753237829938E-01
      8 F   7 N     3.581932070701E-01  1.418067929299E-01 -1.753237829938E-01
      9 T   1 H     2.508755340950E-01 -2.491244659050E-01  2.781543387431E-01
     10 F   1 H    -2.508755340950E-01  2.491244659050E-01  2.781543387431E-01
     11 F   1 H    -2.491244659050E-01 -2.508755340950E-01 -2.781543387431E-01
     12 F   1 H     2.491244659050E-01  2.508755340950E-01 -2.781543387431E-01
     13 T   1 H     1.394295258826E-01 -3.605704741174E-01 -3.737087527796E-02
     14 F   1 H    -1.394295258826E-01  3.605704741174E-01 -3.737087527796E-02
     15 F   1 H    -3.605704741174E-01 -1.394295258826E-01  3.737087527796E-02
     16 F   1 H     3.605704741174E-01  1.394295258826E-01  3.737087527796E-02

 T = ATOM BELONGING TO THE ASYMMETRIC UNIT

 TOTAL ENERGY(HF)(AU)(   7) -4.4768437568429E+02     DE (AU)   -8.822E-05

 UPDATED TRUST RADIUS     0.400E+01

 SYMMETRY ALLOWED FORCES  (COORDINATE, FORCE)

    1 -2.8268143E-04    2 -1.7716440E-03    3 -6.5922047E-04    4  5.3417463E-04
    5  1.3791356E-04    6 -4.5917609E-04    7 -4.2260367E-04    8  1.7670880E-05
    9 -5.2427418E-04   10  1.7079591E-04

 GRADIENT NORM     0.002157  GRADIENT THRESHOLD     0.500000

 EIGENVALUES OF THE ESTIMATED HESSIAN
  0.9381E-02  0.2574E-01  0.8586E-01  0.9772E-01  0.2195      0.3091    
  0.5967       1.230       1.342       1.703    

 PREDICTED ENERGY CHANGE    -0.104E-04

 MAX GRADIENT      0.001772  THRESHOLD              0.000450 CONVERGED NO
 RMS GRADIENT      0.000682  THRESHOLD              0.000300 CONVERGED NO
 MAX DISPLAC.      0.013960  THRESHOLD              0.001800 CONVERGED NO
 RMS DISPLAC.      0.010214  THRESHOLD              0.001200 CONVERGED NO
 TTTTTTTTTTTTTTTTTTTTTTTTTTTTTT OPTI        TELAPSE      538.28 TCPU      527.21
 *******************************************************************************
 COORDINATE AND CELL OPTIMIZATION - POINT    6
 *******************************************************************************
 LATTICE PARAMETERS (ANGSTROMS AND DEGREES) - BOHR = 0.5291772083 ANGSTROM
 PRIMITIVE CELL - CENTRING CODE 1/0 VOLUME=   150.104933 - DENSITY  1.328 g/cm^3
         A              B              C           ALPHA      BETA       GAMMA 
     5.66197562     5.66197562     4.68229717    90.000000  90.000000  90.000000
 *******************************************************************************
 ATOMS IN THE ASYMMETRIC UNIT    5 - ATOMS IN THE UNIT CELL:   16
     ATOM                 X/A                 Y/B                 Z/C    
 *******************************************************************************
      1 T   6 C     0.000000000000E+00 -5.000000000000E-01  3.243454408181E-01
      2 F   6 C    -5.000000000000E-01  0.000000000000E+00 -3.243454408181E-01
      3 T   8 O     0.000000000000E+00 -5.000000000000E-01 -4.101438536454E-01
      4 F   8 O    -5.000000000000E-01  0.000000000000E+00  4.101438536454E-01
      5 T   7 N     1.416584388230E-01 -3.583415611770E-01  1.745562618000E-01
      6 F   7 N    -1.416584388230E-01  3.583415611770E-01  1.745562618000E-01
      7 F   7 N    -3.583415611770E-01 -1.416584388230E-01 -1.745562618000E-01
      8 F   7 N     3.583415611770E-01  1.416584388230E-01 -1.745562618000E-01
      9 T   1 H     2.505859017732E-01 -2.494140982268E-01  2.775345814639E-01
     10 F   1 H    -2.505859017732E-01  2.494140982268E-01  2.775345814639E-01
     11 F   1 H    -2.494140982268E-01 -2.505859017732E-01 -2.775345814639E-01
     12 F   1 H     2.494140982268E-01  2.505859017732E-01 -2.775345814639E-01
     13 T   1 H     1.391749413901E-01 -3.608250586099E-01 -3.815944108222E-02
     14 F   1 H    -1.391749413901E-01  3.608250586099E-01 -3.815944108222E-02
     15 F   1 H    -3.608250586099E-01 -1.391749413901E-01  3.815944108222E-02
     16 F   1 H     3.608250586099E-01  1.391749413901E-01  3.815944108222E-02

 T = ATOM BELONGING TO THE ASYMMETRIC UNIT

 TOTAL ENERGY(HF)(AU)(   5) -4.4768439163685E+02     DE (AU)   -1.595E-05

 UPDATED TRUST RADIUS     0.400E+01

 SYMMETRY ALLOWED FORCES  (COORDINATE, FORCE)

    1 -2.9307176E-04    2 -4.1705396E-04    3 -2.3047698E-04    4  1.4354274E-04
    5  2.3732576E-04    6 -6.0346589E-04    7  1.6082471E-05    8 -5.8130163E-05
    9 -1.9691307E-04   10 -1.4522371E-04

 GRADIENT NORM     0.000904  GRADIENT THRESHOLD     0.500000

 EIGENVALUES OF THE ESTIMATED HESSIAN
  0.8382E-02  0.1716E-01  0.8330E-01  0.9440E-01  0.2256      0.3241    
  0.5875       1.233       1.316       1.718    

 PREDICTED ENERGY CHANGE    -0.797E-05

 MAX GRADIENT      0.000603  THRESHOLD              0.000450 CONVERGED NO
 RMS GRADIENT      0.000286  THRESHOLD              0.000300 CONVERGED YES
 MAX DISPLAC.      0.019019  THRESHOLD              0.001800 CONVERGED NO
 RMS DISPLAC.      0.011084  THRESHOLD              0.001200 CONVERGED NO
 TTTTTTTTTTTTTTTTTTTTTTTTTTTTTT OPTI        TELAPSE      619.55 TCPU      608.34
 *******************************************************************************
 COORDINATE AND CELL OPTIMIZATION - POINT    7
 *******************************************************************************
 LATTICE PARAMETERS (ANGSTROMS AND DEGREES) - BOHR = 0.5291772083 ANGSTROM
 PRIMITIVE CELL - CENTRING CODE 1/0 VOLUME=   150.036540 - DENSITY  1.329 g/cm^3
         A              B              C           ALPHA      BETA       GAMMA 
     5.66152539     5.66152539     4.68090817    90.000000  90.000000  90.000000
 *******************************************************************************
 ATOMS IN THE ASYMMETRIC UNIT    5 - ATOMS IN THE UNIT CELL:   16
     ATOM                 X/A                 Y/B                 Z/C    
 *******************************************************************************
      1 T   6 C     0.000000000000E+00 -5.000000000000E-01  3.233548529640E-01
      2 F   6 C    -5.000000000000E-01  0.000000000000E+00 -3.233548529640E-01
      3 T   8 O     0.000000000000E+00 -5.000000000000E-01 -4.111017538132E-01
      4 F   8 O    -5.000000000000E-01  0.000000000000E+00  4.111017538132E-01
      5 T   7 N     1.416344332266E-01 -3.583655667734E-01  1.735354128657E-01
      6 F   7 N    -1.416344332266E-01  3.583655667734E-01  1.735354128657E-01
      7 F   7 N    -3.583655667734E-01 -1.416344332266E-01 -1.735354128657E-01
      8 F   7 N     3.583655667734E-01  1.416344332266E-01 -1.735354128657E-01
      9 T   1 H     2.505045911094E-01 -2.494954088906E-01  2.766988441319E-01
     10 F   1 H    -2.505045911094E-01  2.494954088906E-01  2.766988441319E-01
     11 F   1 H    -2.494954088906E-01 -2.505045911094E-01 -2.766988441319E-01
     12 F   1 H     2.494954088906E-01  2.505045911094E-01 -2.766988441319E-01
     13 T   1 H     1.390952882465E-01 -3.609047117535E-01 -3.923375501481E-02
     14 F   1 H    -1.390952882465E-01  3.609047117535E-01 -3.923375501481E-02
     15 F   1 H    -3.609047117535E-01 -1.390952882465E-01  3.923375501481E-02
     16 F   1 H     3.609047117535E-01  1.390952882465E-01  3.923375501481E-02

 T = ATOM BELONGING TO THE ASYMMETRIC UNIT

 TOTAL ENERGY(HF)(AU)(   3) -4.4768440165497E+02     DE (AU)   -1.002E-05

 UPDATED TRUST RADIUS     0.400E+01

 SYMMETRY ALLOWED FORCES  (COORDINATE, FORCE)

    1 -1.0573456E-04    2  1.2248595E-04    3  1.2203358E-04    4  5.4560288E-05
    5  5.3265568E-04    6 -6.1897962E-04    7  3.0161165E-04    8 -8.1494533E-05
    9  1.3235601E-04   10 -1.4162411E-04

 GRADIENT NORM     0.000920  GRADIENT THRESHOLD     0.500000

 EIGENVALUES OF THE ESTIMATED HESSIAN
  0.6189E-02  0.1289E-01  0.8161E-01  0.9220E-01  0.2294      0.3281    
  0.6100       1.234       1.325       1.718    

 PREDICTED ENERGY CHANGE    -0.718E-05

 MAX GRADIENT      0.000619  THRESHOLD              0.000450 CONVERGED NO
 RMS GRADIENT      0.000291  THRESHOLD              0.000300 CONVERGED YES
 MAX DISPLAC.      0.020714  THRESHOLD              0.001800 CONVERGED NO
 RMS DISPLAC.      0.012854  THRESHOLD              0.001200 CONVERGED NO
 TTTTTTTTTTTTTTTTTTTTTTTTTTTTTT OPTI        TELAPSE      685.65 TCPU      674.42
 *******************************************************************************
 COORDINATE AND CELL OPTIMIZATION - POINT    8
 *******************************************************************************
 LATTICE PARAMETERS (ANGSTROMS AND DEGREES) - BOHR = 0.5291772083 ANGSTROM
 PRIMITIVE CELL - CENTRING CODE 1/0 VOLUME=   149.732113 - DENSITY  1.332 g/cm^3
         A              B              C           ALPHA      BETA       GAMMA 
     5.65701201     5.65701201     4.67886756    90.000000  90.000000  90.000000
 *******************************************************************************
 ATOMS IN THE ASYMMETRIC UNIT    5 - ATOMS IN THE UNIT CELL:   16
     ATOM                 X/A                 Y/B                 Z/C    
 *******************************************************************************
      1 T   6 C     0.000000000000E+00 -5.000000000000E-01  3.222758307802E-01
      2 F   6 C    -5.000000000000E-01  0.000000000000E+00 -3.222758307802E-01
      3 T   8 O     0.000000000000E+00 -5.000000000000E-01 -4.120752802457E-01
      4 F   8 O    -5.000000000000E-01  0.000000000000E+00  4.120752802457E-01
      5 T   7 N     1.417650061739E-01 -3.582349938261E-01  1.724544107327E-01
      6 F   7 N    -1.417650061739E-01  3.582349938261E-01  1.724544107327E-01
      7 F   7 N    -3.582349938261E-01 -1.417650061739E-01 -1.724544107327E-01
      8 F   7 N     3.582349938261E-01  1.417650061739E-01 -1.724544107327E-01
      9 T   1 H     2.506983636035E-01 -2.493016363965E-01  2.757474820061E-01
     10 F   1 H    -2.506983636035E-01  2.493016363965E-01  2.757474820061E-01
     11 F   1 H    -2.493016363965E-01 -2.506983636035E-01 -2.757474820061E-01
     12 F   1 H     2.493016363965E-01  2.506983636035E-01 -2.757474820061E-01
     13 T   1 H     1.392214073786E-01 -3.607785926214E-01 -4.040385625692E-02
     14 F   1 H    -1.392214073786E-01  3.607785926214E-01 -4.040385625692E-02
     15 F   1 H    -3.607785926214E-01 -1.392214073786E-01  4.040385625692E-02
     16 F   1 H     3.607785926214E-01  1.392214073786E-01  4.040385625692E-02

 T = ATOM BELONGING TO THE ASYMMETRIC UNIT

 TOTAL ENERGY(HF)(AU)(   5) -4.4768440890248E+02     DE (AU)   -7.248E-06

 UPDATED TRUST RADIUS     0.400E+01

 SYMMETRY ALLOWED FORCES  (COORDINATE, FORCE)

    1 -2.3266840E-05    2  4.3504948E-04    3 -3.4746719E-05    4  1.3281000E-05
    5  4.0061330E-04    6 -5.0854958E-04    7  4.0273621E-04    8 -6.7661999E-05
    9  2.4914697E-04   10 -2.7541014E-04

 GRADIENT NORM     0.000957  GRADIENT THRESHOLD     0.500000

 EIGENVALUES OF THE ESTIMATED HESSIAN
  0.4827E-02  0.1159E-01  0.7998E-01  0.9078E-01  0.1976      0.3282    
  0.6106       1.237       1.326       1.716    

 PREDICTED ENERGY CHANGE    -0.445E-05

 MAX GRADIENT      0.000509  THRESHOLD              0.000450 CONVERGED NO
 RMS GRADIENT      0.000302  THRESHOLD              0.000300 CONVERGED NO
 MAX DISPLAC.      0.013923  THRESHOLD              0.001800 CONVERGED NO
 RMS DISPLAC.      0.010175  THRESHOLD              0.001200 CONVERGED NO
 TTTTTTTTTTTTTTTTTTTTTTTTTTTTTT OPTI        TELAPSE      761.99 TCPU      750.65
 *******************************************************************************
 COORDINATE AND CELL OPTIMIZATION - POINT    9
 *******************************************************************************
 LATTICE PARAMETERS (ANGSTROMS AND DEGREES) - BOHR = 0.5291772083 ANGSTROM
 PRIMITIVE CELL - CENTRING CODE 1/0 VOLUME=   149.417411 - DENSITY  1.334 g/cm^3
         A              B              C           ALPHA      BETA       GAMMA 
     5.65120397     5.65120397     4.67863583    90.000000  90.000000  90.000000
 *******************************************************************************
 ATOMS IN THE ASYMMETRIC UNIT    5 - ATOMS IN THE UNIT CELL:   16
     ATOM                 X/A                 Y/B                 Z/C    
 *******************************************************************************
      1 T   6 C     0.000000000000E+00 -5.000000000000E-01  3.215868545375E-01
      2 F   6 C    -5.000000000000E-01  0.000000000000E+00 -3.215868545375E-01
      3 T   8 O     0.000000000000E+00 -5.000000000000E-01 -4.126932353384E-01
      4 F   8 O    -5.000000000000E-01  0.000000000000E+00  4.126932353384E-01
      5 T   7 N     1.419040236706E-01 -3.580959763294E-01  1.717268282666E-01
      6 F   7 N    -1.419040236706E-01  3.580959763294E-01  1.717268282666E-01
      7 F   7 N    -3.580959763294E-01 -1.419040236706E-01 -1.717268282666E-01
      8 F   7 N     3.580959763294E-01  1.419040236706E-01 -1.717268282666E-01
      9 T   1 H     2.509712309241E-01 -2.490287690759E-01  2.749610196507E-01
     10 F   1 H    -2.509712309241E-01  2.490287690759E-01  2.749610196507E-01
     11 F   1 H    -2.490287690759E-01 -2.509712309241E-01 -2.749610196507E-01
     12 F   1 H     2.490287690759E-01  2.509712309241E-01 -2.749610196507E-01
     13 T   1 H     1.394146507178E-01 -3.605853492822E-01 -4.115601689588E-02
     14 F   1 H    -1.394146507178E-01  3.605853492822E-01 -4.115601689588E-02
     15 F   1 H    -3.605853492822E-01 -1.394146507178E-01  4.115601689588E-02
     16 F   1 H     3.605853492822E-01  1.394146507178E-01  4.115601689588E-02

 T = ATOM BELONGING TO THE ASYMMETRIC UNIT

 TOTAL ENERGY(HF)(AU)(   5) -4.4768441032961E+02     DE (AU)   -1.427E-06

 UPDATED TRUST RADIUS     0.400E+01

 SYMMETRY ALLOWED FORCES  (COORDINATE, FORCE)

    1  1.3340606E-04    2 -6.1825163E-05    3  9.5307113E-05    4  6.0521505E-05
    5  2.8628632E-04    6 -2.2109725E-04    7  1.8875942E-04    8  1.1205476E-04
    9  1.7087403E-04   10 -3.2615194E-05

 GRADIENT NORM     0.000494  GRADIENT THRESHOLD     0.500000

 EIGENVALUES OF THE ESTIMATED HESSIAN
  0.5505E-02  0.1060E-01  0.7150E-01  0.9174E-01  0.1650      0.3273    
  0.6066       1.241       1.327       1.730    

 PREDICTED ENERGY CHANGE    -0.114E-05

 MAX GRADIENT      0.000286  THRESHOLD              0.000450 CONVERGED YES
 RMS GRADIENT      0.000156  THRESHOLD              0.000300 CONVERGED YES
 MAX DISPLAC.      0.004773  THRESHOLD              0.001800 CONVERGED NO
 RMS DISPLAC.      0.002819  THRESHOLD              0.001200 CONVERGED NO
 TTTTTTTTTTTTTTTTTTTTTTTTTTTTTT OPTI        TELAPSE      839.95 TCPU      828.29
 *******************************************************************************
 COORDINATE AND CELL OPTIMIZATION - POINT   10
 *******************************************************************************
 LATTICE PARAMETERS (ANGSTROMS AND DEGREES) - BOHR = 0.5291772083 ANGSTROM
 PRIMITIVE CELL - CENTRING CODE 1/0 VOLUME=   149.330222 - DENSITY  1.335 g/cm^3
         A              B              C           ALPHA      BETA       GAMMA 
     5.64906168     5.64906168     4.67945287    90.000000  90.000000  90.000000
 *******************************************************************************
 ATOMS IN THE ASYMMETRIC UNIT    5 - ATOMS IN THE UNIT CELL:   16
     ATOM                 X/A                 Y/B                 Z/C    
 *******************************************************************************
      1 T   6 C     0.000000000000E+00 -5.000000000000E-01  3.215697072370E-01
      2 F   6 C    -5.000000000000E-01  0.000000000000E+00 -3.215697072370E-01
      3 T   8 O     0.000000000000E+00 -5.000000000000E-01 -4.127478922672E-01
      4 F   8 O    -5.000000000000E-01  0.000000000000E+00  4.127478922672E-01
      5 T   7 N     1.419806057995E-01 -3.580193942005E-01  1.717391087692E-01
      6 F   7 N    -1.419806057995E-01  3.580193942005E-01  1.717391087692E-01
      7 F   7 N    -3.580193942005E-01 -1.419806057995E-01 -1.717391087692E-01
      8 F   7 N     3.580193942005E-01  1.419806057995E-01 -1.717391087692E-01
      9 T   1 H     2.511316803941E-01 -2.488683196059E-01  2.748488394948E-01
     10 F   1 H    -2.511316803941E-01  2.488683196059E-01  2.748488394948E-01
     11 F   1 H    -2.488683196059E-01 -2.511316803941E-01 -2.748488394948E-01
     12 F   1 H     2.488683196059E-01  2.511316803941E-01 -2.748488394948E-01
     13 T   1 H     1.395284275331E-01 -3.604715724669E-01 -4.110772021400E-02
     14 F   1 H    -1.395284275331E-01  3.604715724669E-01 -4.110772021400E-02
     15 F   1 H    -3.604715724669E-01 -1.395284275331E-01  4.110772021400E-02
     16 F   1 H     3.604715724669E-01  1.395284275331E-01  4.110772021400E-02

 T = ATOM BELONGING TO THE ASYMMETRIC UNIT

 N OF POINTS AFTER LAST CHANGE:    10

 REFERENCE GEOMETRY WILL BE CHANGED

 TOTAL ENERGY(HF)(AU)(   5) -4.4768445616066E+02     DE (AU)   -4.583E-05

 SYMMETRY ALLOWED FORCES  (COORDINATE, FORCE)

    1  1.4849688E-04    2 -1.2078156E-04    3  1.2839083E-06    4 -1.3954539E-04
    5  8.1433079E-05    6 -2.5983328E-05    7  2.7156737E-05    8  9.9165951E-05
    9  9.1756778E-05   10 -1.4786194E-04

 GRADIENT NORM     0.000323  GRADIENT THRESHOLD     0.500000

 HESSIAN UPDATE SKIPPED

 EIGENVALUES OF THE ESTIMATED HESSIAN
  0.5505E-02  0.1060E-01  0.7150E-01  0.9174E-01  0.1650      0.3273    
  0.6066       1.241       1.327       1.730    

 PREDICTED ENERGY CHANGE    -0.417E-06

 MAX GRADIENT      0.000148  THRESHOLD              0.000450 CONVERGED YES
 RMS GRADIENT      0.000102  THRESHOLD              0.000300 CONVERGED YES
 MAX DISPLAC.      0.003637  THRESHOLD              0.001800 CONVERGED NO
 RMS DISPLAC.      0.001783  THRESHOLD              0.001200 CONVERGED NO
 TTTTTTTTTTTTTTTTTTTTTTTTTTTTTT OPTI        TELAPSE      940.21 TCPU      923.66
 *******************************************************************************
 COORDINATE AND CELL OPTIMIZATION - POINT   11
 *******************************************************************************
 LATTICE PARAMETERS (ANGSTROMS AND DEGREES) - BOHR = 0.5291772083 ANGSTROM
 PRIMITIVE CELL - CENTRING CODE 1/0 VOLUME=   149.298061 - DENSITY  1.335 g/cm^3
         A              B              C           ALPHA      BETA       GAMMA 
     5.64782199     5.64782199     4.68049913    90.000000  90.000000  90.000000
 *******************************************************************************
 ATOMS IN THE ASYMMETRIC UNIT    5 - ATOMS IN THE UNIT CELL:   16
     ATOM                 X/A                 Y/B                 Z/C    
 *******************************************************************************
      1 T   6 C     0.000000000000E+00 -5.000000000000E-01  3.214864610563E-01
      2 F   6 C     5.000000000000E-01  0.000000000000E+00 -3.214864610563E-01
      3 T   8 O     0.000000000000E+00 -5.000000000000E-01 -4.128854908196E-01
      4 F   8 O     5.000000000000E-01  0.000000000000E+00  4.128854908196E-01
      5 T   7 N     1.420079288010E-01 -3.579920711990E-01  1.716549668634E-01
      6 F   7 N    -1.420079288010E-01  3.579920711990E-01  1.716549668634E-01
      7 F   7 N    -3.579920711990E-01 -1.420079288010E-01 -1.716549668634E-01
      8 F   7 N     3.579920711990E-01  1.420079288010E-01 -1.716549668634E-01
      9 T   1 H     2.511902260057E-01 -2.488097739943E-01  2.747269554693E-01
     10 F   1 H    -2.511902260057E-01  2.488097739943E-01  2.747269554693E-01
     11 F   1 H    -2.488097739943E-01 -2.511902260057E-01 -2.747269554693E-01
     12 F   1 H     2.488097739943E-01  2.511902260057E-01 -2.747269554693E-01
     13 T   1 H     1.395701232921E-01 -3.604298767079E-01 -4.114739280915E-02
     14 F   1 H    -1.395701232921E-01  3.604298767079E-01 -4.114739280915E-02
     15 F   1 H    -3.604298767079E-01 -1.395701232921E-01  4.114739280915E-02
     16 F   1 H     3.604298767079E-01  1.395701232921E-01  4.114739280915E-02

 T = ATOM BELONGING TO THE ASYMMETRIC UNIT

 TOTAL ENERGY(HF)(AU)(   3) -4.4768445595641E+02     DE (AU)    2.043E-07

 UPDATED TRUST RADIUS     0.141E-02
 ENERGY CHANGE > 0: STEP REJECTED. RETRYING WITH A NEW STEP

 EIGENVALUES OF THE ESTIMATED HESSIAN
  0.5505E-02  0.1060E-01  0.7150E-01  0.9174E-01  0.1650      0.3273    
  0.6066       1.241       1.327       1.730    
 NEWTON STEP ( 0.5639263717E-02) EXCEEDS TRUST RADIUS ( 0.1409815908E-02)
 LEVEL SHIFT    -0.1170329447E-01

 PREDICTED ENERGY CHANGE    -0.242E-06

 MAX GRADIENT      0.000148  THRESHOLD              0.000450 CONVERGED YES
 RMS GRADIENT      0.000102  THRESHOLD              0.000300 CONVERGED YES
 MAX DISPLAC.      0.001136  THRESHOLD              0.001800 CONVERGED YES
 RMS DISPLAC.      0.000446  THRESHOLD              0.001200 CONVERGED YES

 CONVERGENCE TESTS SATISFIED AFTER  11 ENERGY AND GRADIENT CALCULATIONS
 +++++++++++++++++++++++++++++++++++++++++++++++++++++++++++++++++++++++++++++++
 FINALRUN OPTION: RE-STARTING OPTIMIZATION
 +++++++++++++++++++++++++++++++++++++++++++++++++++++++++++++++++++++++++++++++
 TTTTTTTTTTTTTTTTTTTTTTTTTTTTTT OPTI        TELAPSE      979.46 TCPU      959.83
 *******************************************************************************
 COORDINATE AND CELL OPTIMIZATION - POINT   12
 *******************************************************************************
 LATTICE PARAMETERS (ANGSTROMS AND DEGREES) - BOHR = 0.5291772083 ANGSTROM
 PRIMITIVE CELL - CENTRING CODE 1/0 VOLUME=   149.331491 - DENSITY  1.335 g/cm^3
         A              B              C           ALPHA      BETA       GAMMA 
     5.64881706     5.64881706     4.67989795    90.000000  90.000000  90.000000
 *******************************************************************************
 ATOMS IN THE ASYMMETRIC UNIT    5 - ATOMS IN THE UNIT CELL:   16
     ATOM                 X/A                 Y/B                 Z/C    
 *******************************************************************************
      1 T   6 C     0.000000000000E+00 -5.000000000000E-01  3.215610971067E-01
      2 F   6 C    -5.000000000000E-01  0.000000000000E+00 -3.215610971067E-01
      3 T   8 O     0.000000000000E+00 -5.000000000000E-01 -4.127810542845E-01
      4 F   8 O    -5.000000000000E-01  0.000000000000E+00  4.127810542845E-01
      5 T   7 N     1.419848069425E-01 -3.580151930575E-01  1.717285671828E-01
      6 F   7 N    -1.419848069425E-01  3.580151930575E-01  1.717285671828E-01
      7 F   7 N    -3.580151930575E-01 -1.419848069425E-01 -1.717285671828E-01
      8 F   7 N     3.580151930575E-01  1.419848069425E-01 -1.717285671828E-01
      9 T   1 H     2.511441202768E-01 -2.488558797232E-01  2.748211331714E-01
     10 F   1 H    -2.511441202768E-01  2.488558797232E-01  2.748211331714E-01
     11 F   1 H    -2.488558797232E-01 -2.511441202768E-01 -2.748211331714E-01
     12 F   1 H     2.488558797232E-01  2.511441202768E-01 -2.748211331714E-01
     13 T   1 H     1.395364188626E-01 -3.604635811374E-01 -4.109873197521E-02
     14 F   1 H    -1.395364188626E-01  3.604635811374E-01 -4.109873197521E-02
     15 F   1 H    -3.604635811374E-01 -1.395364188626E-01  4.109873197521E-02
     16 F   1 H     3.604635811374E-01  1.395364188626E-01  4.109873197521E-02

 T = ATOM BELONGING TO THE ASYMMETRIC UNIT

 REFERENCE GEOMETRY WILL BE CHANGED

 TOTAL ENERGY(HF)(AU)(   3) -4.4768445625137E+02     DE (AU)   -9.070E-08

 SYMMETRY ALLOWED FORCES  (COORDINATE, FORCE)

    1  8.5110270E-05    2 -1.4315490E-04    3  1.6804634E-05    4 -8.3300822E-05
    5  6.8111462E-05    6 -1.8063019E-05    7  8.4682599E-06    8  1.0767458E-04
    9  6.1030064E-05   10 -1.0887008E-04

 GRADIENT NORM     0.000259  GRADIENT THRESHOLD     0.500000

 HESSIAN UPDATE SKIPPED

 EIGENVALUES OF THE ESTIMATED HESSIAN
  0.5505E-02  0.1060E-01  0.7150E-01  0.9174E-01  0.1650      0.3273    
  0.6066       1.241       1.327       1.730    
 NEWTON STEP ( 0.4902679403E-02) EXCEEDS TRUST RADIUS ( 0.1409815908E-02)
 LEVEL SHIFT    -0.8782746789E-02

 PREDICTED ENERGY CHANGE    -0.189E-06

 MAX GRADIENT      0.000143  THRESHOLD              0.000450 CONVERGED YES
 RMS GRADIENT      0.000082  THRESHOLD              0.000300 CONVERGED YES
 MAX DISPLAC.      0.001111  THRESHOLD              0.001800 CONVERGED YES
 RMS DISPLAC.      0.000446  THRESHOLD              0.001200 CONVERGED YES

 CONVERGENCE TESTS SATISFIED AFTER  12 ENERGY AND GRADIENT CALCULATIONS

 ******************************************************************
 * OPT END - CONVERGED * E(AU):  -4.476844562514E+02  POINTS   12 *
 ******************************************************************

   BAND GAP:                     16.1641  eV 


 NEIGHBORS OF THE NON-EQUIVALENT ATOMS

 N = NUMBER OF NEIGHBORS AT DISTANCE R
    ATOM  N     R/ANG      R/AU   NEIGHBORS (ATOM LABELS AND CELL INDICES)
   1 C    1     1.2433     2.3494    3 O    0 0 1
   1 C    2     1.3335     2.5200    5 N    0 1 0    6 N    0 0 0
   1 C    2     2.0182     3.8138    9 H    0 1 0   10 H    0 0 0
   1 C    2     2.0305     3.8372   13 H    0 1 0   14 H    0 0 0
   1 C    2     2.7423     5.1822   11 H    0 1 1   12 H    0 0 1
   1 C    2     3.1646     5.9803   15 H    0 1 0   16 H    0 0 0

   3 O    1     1.2433     2.3494    1 C    0 0-1
   3 O    2     2.0660     3.9041   13 H    0 1 0   14 H    0 0 0
   3 O    2     2.0902     3.9500   11 H    0 1 0   12 H    0 0 0
   3 O    2     2.2511     4.2540    5 N    0 1-1    6 N    0 0-1
   3 O    2     2.4825     4.6912    9 H    0 1-1   10 H    0 0-1
   3 O    2     2.9613     5.5960    5 N    0 1 0    6 N    0 0 0

   5 N    1     0.9962     1.8825   13 H    0 0 0
   5 N    1     0.9966     1.8833    9 H    0 0 0
   5 N    1     1.3335     2.5200    1 C    0-1 0
   5 N    1     2.2511     4.2540    3 O    0-1 1
   5 N    1     2.2685     4.2869    6 N    0-1 0
   5 N    1     2.4597     4.6481   14 H    0-1 0

   9 H    1     0.9966     1.8833    5 N    0 0 0
   9 H    1     1.7265     3.2626   13 H    0 0 0
   9 H    1     2.0182     3.8138    1 C    0-1 0
   9 H    1     2.0902     3.9500    4 O    0 0 0
   9 H    1     2.4825     4.6912    3 O    0-1 1
   9 H    2     2.5281     4.7774   15 H    1 0 0   16 H    0 0 0

  13 H    1     0.9962     1.8825    5 N    0 0 0
  13 H    1     1.7265     3.2626    9 H    0 0 0
  13 H    1     2.0305     3.8372    1 C    0-1 0
  13 H    1     2.0660     3.9041    3 O    0-1 0
  13 H    1     2.2294     4.2130   14 H    0-1 0
  13 H    1     2.4597     4.6481    6 N    0-1 0

 TTTTTTTTTTTTTTTTTTTTTTTTTTTTTT AFTER FIRST TELAPSE     1046.20 TCPU     1025.93
 MMMMMMMMMMMMMMMMMMMMMMMMMMMMMMMMMMMMMMMMMMMMMMMMMMMMMMMMMMMMMMMMMMMMMMMMMMMMMMM
     ALPHA+BETA ELECTRONS
 MULLIKEN POPULATION ANALYSIS - NO. OF ELECTRONS   64.000000

  ATOM    Z CHARGE  A.O. POPULATION

   1 C    6  4.788  1.997  0.405  0.439  0.439  0.586  0.303  0.230  0.230
                    0.002  0.029  0.046  0.046  0.025  0.012
   2 C    6  4.788  1.997  0.405  0.439  0.439  0.586  0.303  0.230  0.230
                    0.002  0.029  0.046  0.046  0.025  0.012
   3 O    8  8.778  1.997  0.408  0.743  0.743  0.615  1.512  0.973  0.973
                    0.783  0.016  0.007  0.007  0.000  0.000
   4 O    8  8.778  1.997  0.408  0.743  0.743  0.615  1.512  0.973  0.973
                    0.783  0.016  0.007  0.007  0.000  0.000
   5 N    7  7.743  1.997  0.358  0.653  0.653  0.585  1.217  0.809  0.809
                    0.639  0.005  0.005  0.005  0.003  0.005
   6 N    7  7.743  1.997  0.358  0.653  0.653  0.585  1.217  0.809  0.809
                    0.639  0.005  0.005  0.005  0.003  0.005
   7 N    7  7.743  1.997  0.358  0.653  0.653  0.585  1.217  0.809  0.809
                    0.639  0.005  0.005  0.005  0.003  0.005
   8 N    7  7.743  1.997  0.358  0.653  0.653  0.585  1.217  0.809  0.809
                    0.639  0.005  0.005  0.005  0.003  0.005
   9 H    1  0.740  0.437  0.266  0.014  0.014  0.008
  10 H    1  0.740  0.437  0.266  0.014  0.014  0.008
  11 H    1  0.740  0.437  0.266  0.014  0.014  0.008
  12 H    1  0.740  0.437  0.266  0.014  0.014  0.008
  13 H    1  0.734  0.438  0.258  0.005  0.005  0.027
  14 H    1  0.734  0.438  0.258  0.005  0.005  0.027
  15 H    1  0.734  0.438  0.258  0.005  0.005  0.027
  16 H    1  0.734  0.438  0.258  0.005  0.005  0.027

  ATOM    Z CHARGE  SHELL POPULATION

   1 C    6  4.788  1.997  1.869  0.765  0.157
   2 C    6  4.788  1.997  1.869  0.765  0.157
   3 O    8  8.778  1.997  2.510  4.240  0.031
   4 O    8  8.778  1.997  2.510  4.240  0.031
   5 N    7  7.743  1.997  2.249  3.473  0.024
   6 N    7  7.743  1.997  2.249  3.473  0.024
   7 N    7  7.743  1.997  2.249  3.473  0.024
   8 N    7  7.743  1.997  2.249  3.473  0.024
   9 H    1  0.740  0.437  0.266  0.037
  10 H    1  0.740  0.437  0.266  0.037
  11 H    1  0.740  0.437  0.266  0.037
  12 H    1  0.740  0.437  0.266  0.037
  13 H    1  0.734  0.438  0.258  0.037
  14 H    1  0.734  0.438  0.258  0.037
  15 H    1  0.734  0.438  0.258  0.037
  16 H    1  0.734  0.438  0.258  0.037

 OVERLAP POPULATION CONDENSED TO ATOMS FOR FIRST   6 NEIGHBORS

 ATOM A   1 C    ATOM B     CELL      R(AB)/AU R(AB)/ANG    OVPOP(AB)
                  3 O    (  0  0  1)     2.349     1.243     0.514
                  5 N    (  0  1  0)     2.520     1.334     0.339
                  9 H    (  0  1  0)     3.814     2.018    -0.029
                 13 H    (  0  1  0)     3.837     2.031    -0.027
                 11 H    (  0  1  1)     5.182     2.742     0.002
                 15 H    (  0  1  0)     5.980     3.165     0.001

 ATOM A   3 O    ATOM B     CELL      R(AB)/AU R(AB)/ANG    OVPOP(AB)
                  1 C    (  0  0 -1)     2.349     1.243     0.514
                 13 H    (  0  1  0)     3.904     2.066     0.034
                 11 H    (  0  1  0)     3.950     2.090     0.038
                  5 N    (  0  1 -1)     4.254     2.251    -0.055
                  9 H    (  0  1 -1)     4.691     2.482     0.002
                  5 N    (  0  1  0)     5.596     2.961    -0.006

 ATOM A   5 N    ATOM B     CELL      R(AB)/AU R(AB)/ANG    OVPOP(AB)
                 13 H    (  0  0  0)     1.883     0.996     0.346
                  9 H    (  0  0  0)     1.883     0.997     0.341
                  1 C    (  0 -1  0)     2.520     1.334     0.339
                  3 O    (  0 -1  1)     4.254     2.251    -0.055
                  6 N    (  0 -1  0)     4.287     2.269    -0.083
                 14 H    (  0 -1  0)     4.648     2.460    -0.002

 ATOM A   9 H    ATOM B     CELL      R(AB)/AU R(AB)/ANG    OVPOP(AB)
                  5 N    (  0  0  0)     1.883     0.997     0.341
                 13 H    (  0  0  0)     3.263     1.727    -0.017
                  1 C    (  0 -1  0)     3.814     2.018    -0.029
                  4 O    (  0  0  0)     3.950     2.090     0.038
                  3 O    (  0 -1  1)     4.691     2.482     0.002
                 15 H    (  1  0  0)     4.777     2.528     0.001

 ATOM A  13 H    ATOM B     CELL      R(AB)/AU R(AB)/ANG    OVPOP(AB)
                  5 N    (  0  0  0)     1.883     0.996     0.346
                  9 H    (  0  0  0)     3.263     1.727    -0.017
                  1 C    (  0 -1  0)     3.837     2.031    -0.027
                  3 O    (  0 -1  0)     3.904     2.066     0.034
                 14 H    (  0 -1  0)     4.213     2.229    -0.003
                  6 N    (  0 -1  0)     4.648     2.460    -0.002
 EIGENVECTORS IN FORTRAN UNIT 10

 FINAL OPTIMIZED GEOMETRY - DIMENSIONALITY OF THE SYSTEM      3
 (NON PERIODIC DIRECTION: LATTICE PARAMETER FORMALLY SET TO 500)
 *******************************************************************************
 LATTICE PARAMETERS (ANGSTROMS AND DEGREES) - BOHR = 0.5291772083 ANGSTROM
 PRIMITIVE CELL - CENTRING CODE 1/0 VOLUME=   149.331491 - DENSITY  1.335 g/cm^3
         A              B              C           ALPHA      BETA       GAMMA 
     5.64881706     5.64881706     4.67989795    90.000000  90.000000  90.000000
 *******************************************************************************
 ATOMS IN THE ASYMMETRIC UNIT    5 - ATOMS IN THE UNIT CELL:   16
     ATOM                 X/A                 Y/B                 Z/C    
 *******************************************************************************
      1 T   6 C     0.000000000000E+00 -5.000000000000E-01  3.215610971067E-01
      2 F   6 C    -5.000000000000E-01  0.000000000000E+00 -3.215610971067E-01
      3 T   8 O     0.000000000000E+00 -5.000000000000E-01 -4.127810542845E-01
      4 F   8 O    -5.000000000000E-01  0.000000000000E+00  4.127810542845E-01
      5 T   7 N     1.419848069425E-01 -3.580151930575E-01  1.717285671828E-01
      6 F   7 N    -1.419848069425E-01  3.580151930575E-01  1.717285671828E-01
      7 F   7 N    -3.580151930575E-01 -1.419848069425E-01 -1.717285671828E-01
      8 F   7 N     3.580151930575E-01  1.419848069425E-01 -1.717285671828E-01
      9 T   1 H     2.511441202768E-01 -2.488558797232E-01  2.748211331714E-01
     10 F   1 H    -2.511441202768E-01  2.488558797232E-01  2.748211331714E-01
     11 F   1 H    -2.488558797232E-01 -2.511441202768E-01 -2.748211331714E-01
     12 F   1 H     2.488558797232E-01  2.511441202768E-01 -2.748211331714E-01
     13 T   1 H     1.395364188626E-01 -3.604635811374E-01 -4.109873197521E-02
     14 F   1 H    -1.395364188626E-01  3.604635811374E-01 -4.109873197521E-02
     15 F   1 H    -3.604635811374E-01 -1.395364188626E-01  4.109873197521E-02
     16 F   1 H     3.604635811374E-01  1.395364188626E-01  4.109873197521E-02

 T = ATOM BELONGING TO THE ASYMMETRIC UNIT
 INFORMATION **** fort.34 **** GEOMETRY OUTPUT FILE

 DIRECT LATTICE VECTORS CARTESIAN COMPONENTS (ANGSTROM)
          X                    Y                    Z
   0.564881705677E+01   0.000000000000E+00   0.000000000000E+00
   0.000000000000E+00   0.564881705677E+01   0.000000000000E+00
   0.000000000000E+00   0.000000000000E+00   0.467989794735E+01


 CARTESIAN COORDINATES - PRIMITIVE CELL
 *******************************************************************************
 *      ATOM          X(ANGSTROM)         Y(ANGSTROM)         Z(ANGSTROM)
 *******************************************************************************
    1     6 C     0.000000000000E+00  2.824408528387E+00  1.504873118297E+00
    2     6 C     2.824408528387E+00  0.000000000000E+00 -1.504873118297E+00
    3     8 O     0.000000000000E+00  2.824408528387E+00 -1.931773208650E+00
    4     8 O     2.824408528387E+00  0.000000000000E+00  1.931773208650E+00
    5     7 N     8.020461992598E-01 -2.022362329127E+00  8.036721690599E-01
    6     7 N    -8.020461992598E-01  2.022362329127E+00  8.036721690599E-01
    7     7 N    -2.022362329127E+00 -8.020461992598E-01 -8.036721690599E-01
    8     7 N     2.022362329127E+00  8.020461992598E-01 -8.036721690599E-01
    9     1 H     1.418667190328E+00 -1.405741338059E+00  1.286134857017E+00
   10     1 H    -1.418667190328E+00  1.405741338059E+00  1.286134857017E+00
   11     1 H    -1.405741338059E+00 -1.418667190328E+00 -1.286134857017E+00
   12     1 H     1.405741338059E+00  1.418667190328E+00 -1.286134857017E+00
   13     1 H     7.882157029124E-01 -2.036192825475E+00 -1.923378714094E-01
   14     1 H    -7.882157029124E-01  2.036192825475E+00 -1.923378714094E-01
   15     1 H    -2.036192825475E+00 -7.882157029124E-01  1.923378714094E-01
   16     1 H     2.036192825475E+00  7.882157029124E-01  1.923378714094E-01

 ****    8 SYMMOPS - TRANSLATORS IN FRACTIONAL UNITS
 **** MATRICES AND TRANSLATORS IN THE CRYSTALLOGRAPHIC REFERENCE FRAME
   V INV                    ROTATION MATRICES                   TRANSLATORS
   1   1  1.00  0.00  0.00  0.00  1.00  0.00  0.00  0.00  1.00  0.00  0.00  0.00
   2   2 -1.00  0.00  0.00  0.00 -1.00  0.00  0.00  0.00  1.00  0.00  0.00  0.00
   3   3  1.00  0.00  0.00  0.00 -1.00  0.00  0.00  0.00 -1.00  0.50  0.50  0.00
   4   4 -1.00  0.00  0.00  0.00  1.00  0.00  0.00  0.00 -1.00  0.50  0.50  0.00
   5   5  0.00  1.00  0.00  1.00  0.00  0.00  0.00  0.00  1.00  0.50  0.50  0.00
   6   6  0.00 -1.00  0.00 -1.00  0.00  0.00  0.00  0.00  1.00  0.50  0.50  0.00
   7   8  0.00 -1.00  0.00  1.00  0.00  0.00  0.00  0.00 -1.00  0.00  0.00  0.00
   8   7  0.00  1.00  0.00 -1.00  0.00  0.00  0.00  0.00 -1.00  0.00  0.00  0.00
 TTTTTTTTTTTTTTTTTTTTTTTTTTTTTT END         TELAPSE     1046.35 TCPU     1026.03
 EEEEEEEEEE TERMINATION  DATE 24 09 2020 TIME 14:05:46.6
