[Molden Format]
[SpaceGroup] (Number)
1

[Operators]
x, y, z

[Cell] (Angs)
      0.00000000      0.00000000      0.05031959        0.0000      0.0000      0.0000

[CellAxes] (Angs)
    5.56500000    0.00000000    0.00000000
    0.00000000    5.56500000    0.00000000
    0.00000000    0.00000000    4.68400000

[Atoms] (Fractional)
C      1     6      0.0000000000E+00   -0.5000000000E+00    0.3260000000E+00
O      2     8      0.0000000000E+00   -0.5000000000E+00   -0.4047000000E+00
N      3     7      0.1459000000E+00   -0.3541000000E+00    0.1766000000E+00
N      4     7     -0.1459000000E+00    0.3541000000E+00    0.1766000000E+00
H      5     1      0.1441000000E+00   -0.3559000000E+00   -0.3800000000E-01
H      6     1      0.2575000000E+00   -0.2425000000E+00    0.2827000000E+00
H      7     1     -0.1441000000E+00    0.3559000000E+00   -0.3800000000E-01
H      8     1     -0.2575000000E+00    0.2425000000E+00    0.2827000000E+00
C      9     6      0.5000000000E+00    0.0000000000E+00   -0.3260000000E+00
O     10     8      0.5000000000E+00    0.0000000000E+00    0.4047000000E+00
N     11     7     -0.3541000000E+00   -0.1459000000E+00   -0.1766000000E+00
N     12     7      0.3541000000E+00    0.1459000000E+00   -0.1766000000E+00
H     13     1     -0.3559000000E+00   -0.1441000000E+00    0.3800000000E-01
H     14     1     -0.2425000000E+00   -0.2575000000E+00   -0.2827000000E+00
H     15     1      0.3559000000E+00    0.1441000000E+00    0.3800000000E-01
H     16     1      0.2425000000E+00    0.2575000000E+00   -0.2827000000E+00
[5D]
[7F]
[GTO]
   1
s       6
     3047.52000000        0.53375539
      456.42400000        0.98927438
      103.65300000        1.59189144
       29.22580000        2.06423373
        9.34863000        1.78503360
        3.18904000        0.61701885
sp       2
        3.66498000       -0.74738434        1.70917758
        0.77054500        0.71266103        0.88562206
sp       1
        0.19585700        0.20982847        0.18572226
d       1
        0.80000000        1.92920137

   2
s       6
     5472.27000000        0.83080904
      817.80600000        1.53730975
      186.44600000        2.46782617
       53.02300000        3.21222537
       17.18000000        2.80501243
        5.91196000        0.98404774
sp       2
        7.40294000       -1.29369515        4.25723044
        1.57620000        1.22471212        2.14975723
sp       1
        0.37368400        0.34063437        0.41645753
d       1
        0.80000000        1.92920137

   3
s       6
     4150.11000000        0.68006065
      620.08400000        1.25443804
      141.68800000        2.00881384
       40.33670000        2.60742709
       13.02670000        2.27809981
        4.47003000        0.80118832
sp       2
        5.42522000       -1.04710105        2.80858564
        1.14915000        0.96855007        1.45673455
sp       1
        0.28320500        0.27668510        0.29448707
d       1
        0.80000000        1.92920137

   4
s       6
     4150.11000000        0.68006065
      620.08400000        1.25443804
      141.68800000        2.00881384
       40.33670000        2.60742709
       13.02670000        2.27809981
        4.47003000        0.80118832
sp       2
        5.42522000       -1.04710105        2.80858564
        1.14915000        0.96855007        1.45673455
sp       1
        0.28320500        0.27668510        0.29448707
d       1
        0.80000000        1.92920137

   5
s       2
        5.44717800        0.39715132
        0.82454724        0.55792004
s       1
        0.18319158        0.19956723
p       1
        1.10000000        1.60576114

   6
s       2
        5.44717800        0.39715132
        0.82454724        0.55792004
s       1
        0.18319158        0.19956723
p       1
        1.10000000        1.60576114

   7
s       2
        5.44717800        0.39715132
        0.82454724        0.55792004
s       1
        0.18319158        0.19956723
p       1
        1.10000000        1.60576114

   8
s       2
        5.44717800        0.39715132
        0.82454724        0.55792004
s       1
        0.18319158        0.19956723
p       1
        1.10000000        1.60576114

   9
s       6
     3047.52000000        0.53375539
      456.42400000        0.98927438
      103.65300000        1.59189144
       29.22580000        2.06423373
        9.34863000        1.78503360
        3.18904000        0.61701885
sp       2
        3.66498000       -0.74738434        1.70917758
        0.77054500        0.71266103        0.88562206
sp       1
        0.19585700        0.20982847        0.18572226
d       1
        0.80000000        1.92920137

  10
s       6
     5472.27000000        0.83080904
      817.80600000        1.53730975
      186.44600000        2.46782617
       53.02300000        3.21222537
       17.18000000        2.80501243
        5.91196000        0.98404774
sp       2
        7.40294000       -1.29369515        4.25723044
        1.57620000        1.22471212        2.14975723
sp       1
        0.37368400        0.34063437        0.41645753
d       1
        0.80000000        1.92920137

  11
s       6
     4150.11000000        0.68006065
      620.08400000        1.25443804
      141.68800000        2.00881384
       40.33670000        2.60742709
       13.02670000        2.27809981
        4.47003000        0.80118832
sp       2
        5.42522000       -1.04710105        2.80858564
        1.14915000        0.96855007        1.45673455
sp       1
        0.28320500        0.27668510        0.29448707
d       1
        0.80000000        1.92920137

  12
s       6
     4150.11000000        0.68006065
      620.08400000        1.25443804
      141.68800000        2.00881384
       40.33670000        2.60742709
       13.02670000        2.27809981
        4.47003000        0.80118832
sp       2
        5.42522000       -1.04710105        2.80858564
        1.14915000        0.96855007        1.45673455
sp       1
        0.28320500        0.27668510        0.29448707
d       1
        0.80000000        1.92920137

  13
s       2
        5.44717800        0.39715132
        0.82454724        0.55792004
s       1
        0.18319158        0.19956723
p       1
        1.10000000        1.60576114

  14
s       2
        5.44717800        0.39715132
        0.82454724        0.55792004
s       1
        0.18319158        0.19956723
p       1
        1.10000000        1.60576114

  15
s       2
        5.44717800        0.39715132
        0.82454724        0.55792004
s       1
        0.18319158        0.19956723
p       1
        1.10000000        1.60576114

  16
s       2
        5.44717800        0.39715132
        0.82454724        0.55792004
s       1
        0.18319158        0.19956723
p       1
        1.10000000        1.60576114

[MO]
 Sym   = 1A
 Ene   =     -20.553501
 Spin  = ALPHA+BETA
 Occup =  2.0000
    1  -0.1784785E-04
    2  -0.2023523E-03
    3   0.0000000E+00
    4   0.0000000E+00
    5  -0.2369402E-03
    6  -0.6585008E-03
    7   0.0000000E+00
    8   0.0000000E+00
    9  -0.1376022E-02
   10   0.7023310E-04
   11   0.0000000E+00
   12   0.0000000E+00
   13   0.0000000E+00
   14  -0.1754991E-04
   15  -0.9947079E+00
   16  -0.2083491E-01
   17   0.0000000E+00
   18   0.0000000E+00
   19   0.1425277E-02
   20   0.1893768E-02
   21   0.0000000E+00
   22   0.0000000E+00
   23  -0.1066351E-02
   24   0.1108506E-03
   25   0.0000000E+00
   26   0.0000000E+00
   27   0.0000000E+00
   28  -0.6333006E-04
   29   0.0000000E+00
   30   0.3627239E-04
   31  -0.3375178E-04
   32  -0.3372018E-04
   33  -0.2598012E-04
   34  -0.2335522E-03
   35   0.2537172E-03
   36   0.2537235E-03
   37   0.3922303E-03
   38   0.0000000E+00
   39  -0.2150950E-04
   40  -0.2140599E-04
   41   0.0000000E+00
   42  -0.2047315E-04
   43   0.0000000E+00
   44   0.3627239E-04
   45   0.3375178E-04
   46   0.3372018E-04
   47  -0.2598012E-04
   48  -0.2335522E-03
   49  -0.2537172E-03
   50  -0.2537235E-03
   51   0.3922303E-03
   52   0.0000000E+00
   53   0.2150950E-04
   54   0.2140599E-04
   55   0.0000000E+00
   56  -0.2047315E-04
   57   0.1135750E-03
   58   0.2741105E-04
   59   0.0000000E+00
   60   0.0000000E+00
   61   0.5071337E-04
   62  -0.8927131E-04
   63  -0.1239238E-03
   64   0.1362474E-04
   65   0.1328348E-04
   66   0.1010719E-04
   67   0.1135750E-03
   68   0.2741105E-04
   69   0.0000000E+00
   70   0.0000000E+00
   71   0.5071337E-04
   72  -0.8927131E-04
   73  -0.1239238E-03
   74  -0.1362474E-04
   75  -0.1328348E-04
   76   0.1010719E-04
   77   0.0000000E+00
   78   0.0000000E+00
   79  -0.1126156E-04
   80   0.2639564E-04
   81   0.0000000E+00
   82   0.0000000E+00
   83  -0.4126087E-04
   84  -0.1090555E-04
   85   0.0000000E+00
   86   0.0000000E+00
   87  -0.1738685E-04
   88   0.1480416E-04
   89   0.0000000E+00
   90   0.0000000E+00
   91   0.0000000E+00
   92   0.0000000E+00
   93   0.0000000E+00
   94   0.0000000E+00
   95   0.0000000E+00
   96   0.0000000E+00
   97  -0.1255538E-04
   98  -0.1545498E-04
   99   0.0000000E+00
  100   0.0000000E+00
  101   0.0000000E+00
  102   0.0000000E+00
  103   0.0000000E+00
  104   0.0000000E+00
  105   0.0000000E+00
  106   0.0000000E+00
  107   0.2225742E-04
  108  -0.2696505E-04
  109  -0.1132851E-04
  110   0.8066102E-04
  111  -0.3730009E-04
  112   0.5920048E-04
  113   0.0000000E+00
  114   0.0000000E+00
  115   0.0000000E+00
  116   0.0000000E+00
  117   0.0000000E+00
  118  -0.1768647E-04
  119   0.0000000E+00
  120   0.0000000E+00
  121   0.2225742E-04
  122  -0.2696505E-04
  123   0.1132851E-04
  124  -0.8066102E-04
  125  -0.3730009E-04
  126   0.5920048E-04
  127   0.0000000E+00
  128   0.0000000E+00
  129   0.0000000E+00
  130   0.0000000E+00
  131   0.0000000E+00
  132   0.1768647E-04
  133  -0.1812328E-04
  134   0.0000000E+00
  135   0.0000000E+00
  136   0.0000000E+00
  137   0.0000000E+00
  138   0.0000000E+00
  139  -0.5882661E-04
  140   0.2386336E-04
  141  -0.2587735E-04
  142  -0.1255287E-04
  143   0.1812328E-04
  144   0.0000000E+00
  145   0.0000000E+00
  146   0.0000000E+00
  147   0.0000000E+00
  148   0.0000000E+00
  149   0.5882661E-04
  150   0.2386336E-04
  151  -0.2587735E-04
  152   0.1255287E-04
 Sym   = 1A
 Ene   =     -20.553501
 Spin  = ALPHA+BETA
 Occup =  2.0000
    1   0.0000000E+00
    2   0.0000000E+00
    3  -0.1126156E-04
    4  -0.2639564E-04
    5   0.0000000E+00
    6   0.0000000E+00
    7  -0.4126087E-04
    8   0.1090555E-04
    9   0.0000000E+00
   10   0.0000000E+00
   11   0.1738685E-04
   12   0.1480416E-04
   13   0.0000000E+00
   14   0.0000000E+00
   15   0.0000000E+00
   16   0.0000000E+00
   17   0.0000000E+00
   18   0.0000000E+00
   19   0.0000000E+00
   20   0.0000000E+00
   21  -0.1255538E-04
   22   0.1545498E-04
   23   0.0000000E+00
   24   0.0000000E+00
   25   0.0000000E+00
   26   0.0000000E+00
   27   0.0000000E+00
   28   0.0000000E+00
   29   0.0000000E+00
   30   0.0000000E+00
   31   0.2225742E-04
   32   0.2696505E-04
   33   0.1132851E-04
   34   0.8066102E-04
   35  -0.3730009E-04
   36  -0.5920048E-04
   37   0.0000000E+00
   38   0.0000000E+00
   39   0.0000000E+00
   40   0.0000000E+00
   41   0.0000000E+00
   42   0.1768647E-04
   43   0.0000000E+00
   44   0.0000000E+00
   45   0.2225742E-04
   46   0.2696505E-04
   47  -0.1132851E-04
   48  -0.8066102E-04
   49  -0.3730009E-04
   50  -0.5920048E-04
   51   0.0000000E+00
   52   0.0000000E+00
   53   0.0000000E+00
   54   0.0000000E+00
   55   0.0000000E+00
   56  -0.1768647E-04
   57  -0.1812328E-04
   58   0.0000000E+00
   59   0.0000000E+00
   60   0.0000000E+00
   61   0.0000000E+00
   62   0.0000000E+00
   63  -0.5882661E-04
   64   0.2386336E-04
   65   0.2587735E-04
   66   0.1255287E-04
   67   0.1812328E-04
   68   0.0000000E+00
   69   0.0000000E+00
   70   0.0000000E+00
   71   0.0000000E+00
   72   0.0000000E+00
   73   0.5882661E-04
   74   0.2386336E-04
   75   0.2587735E-04
   76  -0.1255287E-04
   77   0.1784785E-04
   78   0.2023523E-03
   79   0.0000000E+00
   80   0.0000000E+00
   81  -0.2369402E-03
   82   0.6585008E-03
   83   0.0000000E+00
   84   0.0000000E+00
   85  -0.1376022E-02
   86  -0.7023310E-04
   87   0.0000000E+00
   88   0.0000000E+00
   89   0.0000000E+00
   90  -0.1754991E-04
   91   0.9947079E+00
   92   0.2083491E-01
   93   0.0000000E+00
   94   0.0000000E+00
   95   0.1425277E-02
   96  -0.1893768E-02
   97   0.0000000E+00
   98   0.0000000E+00
   99  -0.1066351E-02
  100  -0.1108506E-03
  101   0.0000000E+00
  102   0.0000000E+00
  103   0.0000000E+00
  104  -0.6333006E-04
  105   0.0000000E+00
  106  -0.3627239E-04
  107   0.3375178E-04
  108  -0.3372018E-04
  109  -0.2598012E-04
  110   0.2335522E-03
  111  -0.2537172E-03
  112   0.2537235E-03
  113   0.3922303E-03
  114   0.0000000E+00
  115  -0.2150950E-04
  116   0.2140599E-04
  117   0.0000000E+00
  118  -0.2047315E-04
  119   0.0000000E+00
  120  -0.3627239E-04
  121  -0.3375178E-04
  122   0.3372018E-04
  123  -0.2598012E-04
  124   0.2335522E-03
  125   0.2537172E-03
  126  -0.2537235E-03
  127   0.3922303E-03
  128   0.0000000E+00
  129   0.2150950E-04
  130  -0.2140599E-04
  131   0.0000000E+00
  132  -0.2047315E-04
  133  -0.1135750E-03
  134  -0.2741105E-04
  135   0.0000000E+00
  136   0.0000000E+00
  137   0.5071337E-04
  138   0.8927131E-04
  139   0.1239238E-03
  140  -0.1362474E-04
  141   0.1328348E-04
  142   0.1010719E-04
  143  -0.1135750E-03
  144  -0.2741105E-04
  145   0.0000000E+00
  146   0.0000000E+00
  147   0.5071337E-04
  148   0.8927131E-04
  149   0.1239238E-03
  150   0.1362474E-04
  151  -0.1328348E-04
  152   0.1010719E-04
 Sym   = 1A
 Ene   =     -15.582215
 Spin  = ALPHA+BETA
 Occup =  2.0000
    1   0.0000000E+00
    2   0.2565489E-04
    3   0.0000000E+00
    4   0.0000000E+00
    5   0.0000000E+00
    6   0.2396079E-03
    7   0.0000000E+00
    8   0.0000000E+00
    9   0.1519481E-03
   10   0.3805870E-04
   11   0.0000000E+00
   12   0.0000000E+00
   13   0.0000000E+00
   14   0.0000000E+00
   15   0.0000000E+00
   16  -0.2614280E-04
   17   0.0000000E+00
   18   0.0000000E+00
   19  -0.3349915E-04
   20  -0.6573437E-04
   21   0.0000000E+00
   22   0.0000000E+00
   23   0.1906940E-03
   24  -0.4263645E-04
   25   0.0000000E+00
   26   0.0000000E+00
   27   0.0000000E+00
   28  -0.2963022E-04
   29   0.5439811E-01
   30   0.1210707E-02
   31  -0.1371144E-04
   32   0.0000000E+00
   33   0.0000000E+00
   34  -0.1738850E-03
   35   0.1670338E-04
   36   0.0000000E+00
   37  -0.1941941E-04
   38   0.0000000E+00
   39   0.0000000E+00
   40   0.0000000E+00
   41   0.0000000E+00
   42   0.0000000E+00
   43   0.5439811E-01
   44   0.1210707E-02
   45   0.1371144E-04
   46   0.0000000E+00
   47   0.0000000E+00
   48  -0.1738850E-03
   49  -0.1670338E-04
   50   0.0000000E+00
   51  -0.1941941E-04
   52   0.0000000E+00
   53   0.0000000E+00
   54   0.0000000E+00
   55   0.0000000E+00
   56   0.0000000E+00
   57   0.2182510E-04
   58   0.1974343E-04
   59   0.0000000E+00
   60   0.0000000E+00
   61   0.0000000E+00
   62   0.0000000E+00
   63   0.3399447E-04
   64   0.0000000E+00
   65   0.0000000E+00
   66   0.0000000E+00
   67   0.2182510E-04
   68   0.1974343E-04
   69   0.0000000E+00
   70   0.0000000E+00
   71   0.0000000E+00
   72   0.0000000E+00
   73   0.3399447E-04
   74   0.0000000E+00
   75   0.0000000E+00
   76   0.0000000E+00
   77   0.0000000E+00
   78   0.0000000E+00
   79   0.1753917E-03
   80  -0.1764942E-03
   81   0.0000000E+00
   82   0.0000000E+00
   83   0.8252145E-03
   84  -0.8213874E-03
   85   0.0000000E+00
   86   0.0000000E+00
   87  -0.1066203E-04
   88   0.1691101E-04
   89   0.0000000E+00
   90   0.0000000E+00
   91   0.0000000E+00
   92   0.0000000E+00
   93  -0.1480392E-04
   94   0.0000000E+00
   95   0.0000000E+00
   96   0.0000000E+00
   97  -0.1135706E-03
   98   0.1422185E-03
   99   0.0000000E+00
  100   0.0000000E+00
  101  -0.7007295E-04
  102   0.6971006E-04
  103   0.0000000E+00
  104   0.0000000E+00
  105   0.7014400E+00
  106   0.1542921E-01
  107  -0.1438502E-03
  108   0.1488946E-03
  109  -0.1025186E-03
  110  -0.2198363E-02
  111   0.1489645E-03
  112  -0.1622629E-03
  113   0.4000809E-03
  114  -0.2692561E-04
  115   0.0000000E+00
  116   0.0000000E+00
  117   0.0000000E+00
  118   0.5084400E-04
  119  -0.7014400E+00
  120  -0.1542921E-01
  121  -0.1438502E-03
  122   0.1488946E-03
  123   0.1025186E-03
  124   0.2198363E-02
  125   0.1489645E-03
  126  -0.1622629E-03
  127  -0.4000809E-03
  128   0.2692561E-04
  129   0.0000000E+00
  130   0.0000000E+00
  131   0.0000000E+00
  132  -0.5084400E-04
  133   0.9969372E-04
  134   0.2491543E-03
  135  -0.1699493E-04
  136   0.1808950E-04
  137   0.2899951E-04
  138   0.1986940E-03
  139   0.3343582E-03
  140   0.0000000E+00
  141   0.0000000E+00
  142  -0.1155099E-04
  143  -0.9969372E-04
  144  -0.2491543E-03
  145  -0.1699493E-04
  146   0.1808950E-04
  147  -0.2899951E-04
  148  -0.1986940E-03
  149  -0.3343582E-03
  150   0.0000000E+00
  151   0.0000000E+00
  152   0.1155099E-04
 Sym   = 1A
 Ene   =     -15.582215
 Spin  = ALPHA+BETA
 Occup =  2.0000
    1   0.0000000E+00
    2   0.0000000E+00
    3   0.1753917E-03
    4   0.1764942E-03
    5   0.0000000E+00
    6   0.0000000E+00
    7   0.8252145E-03
    8   0.8213874E-03
    9   0.0000000E+00
   10   0.0000000E+00
   11   0.1066203E-04
   12   0.1691101E-04
   13   0.0000000E+00
   14   0.0000000E+00
   15   0.0000000E+00
   16   0.0000000E+00
   17  -0.1480392E-04
   18   0.0000000E+00
   19   0.0000000E+00
   20   0.0000000E+00
   21  -0.1135706E-03
   22  -0.1422185E-03
   23   0.0000000E+00
   24   0.0000000E+00
   25   0.7007295E-04
   26   0.6971006E-04
   27   0.0000000E+00
   28   0.0000000E+00
   29   0.7014400E+00
   30   0.1542921E-01
   31  -0.1438502E-03
   32  -0.1488946E-03
   33   0.1025186E-03
   34  -0.2198363E-02
   35   0.1489645E-03
   36   0.1622629E-03
   37  -0.4000809E-03
   38  -0.2692561E-04
   39   0.0000000E+00
   40   0.0000000E+00
   41   0.0000000E+00
   42  -0.5084400E-04
   43  -0.7014400E+00
   44  -0.1542921E-01
   45  -0.1438502E-03
   46  -0.1488946E-03
   47  -0.1025186E-03
   48   0.2198363E-02
   49   0.1489645E-03
   50   0.1622629E-03
   51   0.4000809E-03
   52   0.2692561E-04
   53   0.0000000E+00
   54   0.0000000E+00
   55   0.0000000E+00
   56   0.5084400E-04
   57   0.9969372E-04
   58   0.2491543E-03
   59  -0.1699493E-04
   60  -0.1808950E-04
   61  -0.2899951E-04
   62   0.1986940E-03
   63   0.3343582E-03
   64   0.0000000E+00
   65   0.0000000E+00
   66   0.1155099E-04
   67  -0.9969372E-04
   68  -0.2491543E-03
   69  -0.1699493E-04
   70  -0.1808950E-04
   71   0.2899951E-04
   72  -0.1986940E-03
   73  -0.3343582E-03
   74   0.0000000E+00
   75   0.0000000E+00
   76  -0.1155099E-04
   77   0.0000000E+00
   78  -0.2565489E-04
   79   0.0000000E+00
   80   0.0000000E+00
   81   0.0000000E+00
   82  -0.2396079E-03
   83   0.0000000E+00
   84   0.0000000E+00
   85   0.1519481E-03
   86  -0.3805870E-04
   87   0.0000000E+00
   88   0.0000000E+00
   89   0.0000000E+00
   90   0.0000000E+00
   91   0.0000000E+00
   92   0.2614280E-04
   93   0.0000000E+00
   94   0.0000000E+00
   95  -0.3349915E-04
   96   0.6573437E-04
   97   0.0000000E+00
   98   0.0000000E+00
   99   0.1906940E-03
  100   0.4263645E-04
  101   0.0000000E+00
  102   0.0000000E+00
  103   0.0000000E+00
  104  -0.2963022E-04
  105  -0.5439811E-01
  106  -0.1210707E-02
  107   0.1371144E-04
  108   0.0000000E+00
  109   0.0000000E+00
  110   0.1738850E-03
  111  -0.1670338E-04
  112   0.0000000E+00
  113  -0.1941941E-04
  114   0.0000000E+00
  115   0.0000000E+00
  116   0.0000000E+00
  117   0.0000000E+00
  118   0.0000000E+00
  119  -0.5439811E-01
  120  -0.1210707E-02
  121  -0.1371144E-04
  122   0.0000000E+00
  123   0.0000000E+00
  124   0.1738850E-03
  125   0.1670338E-04
  126   0.0000000E+00
  127  -0.1941941E-04
  128   0.0000000E+00
  129   0.0000000E+00
  130   0.0000000E+00
  131   0.0000000E+00
  132   0.0000000E+00
  133  -0.2182510E-04
  134  -0.1974343E-04
  135   0.0000000E+00
  136   0.0000000E+00
  137   0.0000000E+00
  138   0.0000000E+00
  139  -0.3399447E-04
  140   0.0000000E+00
  141   0.0000000E+00
  142   0.0000000E+00
  143  -0.2182510E-04
  144  -0.1974343E-04
  145   0.0000000E+00
  146   0.0000000E+00
  147   0.0000000E+00
  148   0.0000000E+00
  149  -0.3399447E-04
  150   0.0000000E+00
  151   0.0000000E+00
  152   0.0000000E+00
 Sym   = 1A
 Ene   =     -15.582209
 Spin  = ALPHA+BETA
 Occup =  2.0000
    1   0.0000000E+00
    2   0.0000000E+00
    3  -0.3169440E-04
    4  -0.1876079E-04
    5   0.0000000E+00
    6   0.0000000E+00
    7  -0.6008527E-04
    8  -0.5263407E-04
    9   0.0000000E+00
   10   0.0000000E+00
   11  -0.3004811E-04
   12   0.3641980E-04
   13   0.0000000E+00
   14   0.0000000E+00
   15   0.0000000E+00
   16   0.0000000E+00
   17  -0.5824052E-04
   18   0.5975588E-04
   19   0.0000000E+00
   20   0.0000000E+00
   21   0.1811349E-03
   22  -0.1678943E-03
   23   0.0000000E+00
   24   0.0000000E+00
   25   0.0000000E+00
   26   0.0000000E+00
   27   0.0000000E+00
   28   0.0000000E+00
   29  -0.5439268E-01
   30  -0.1173544E-02
   31   0.3862118E-04
   32   0.0000000E+00
   33  -0.1135185E-04
   34   0.9330598E-04
   35  -0.1119756E-03
   36  -0.1976927E-04
   37   0.4004837E-04
   38   0.0000000E+00
   39   0.0000000E+00
   40  -0.1247365E-04
   41   0.0000000E+00
   42   0.0000000E+00
   43   0.5439268E-01
   44   0.1173544E-02
   45   0.3862118E-04
   46   0.0000000E+00
   47   0.1135185E-04
   48  -0.9330598E-04
   49  -0.1119756E-03
   50  -0.1976927E-04
   51  -0.4004837E-04
   52   0.0000000E+00
   53   0.0000000E+00
   54  -0.1247365E-04
   55   0.0000000E+00
   56   0.0000000E+00
   57   0.0000000E+00
   58  -0.1762657E-04
   59   0.0000000E+00
   60   0.0000000E+00
   61   0.1538835E-04
   62   0.0000000E+00
   63   0.1530773E-04
   64   0.0000000E+00
   65  -0.2148517E-04
   66   0.0000000E+00
   67   0.0000000E+00
   68   0.1762657E-04
   69   0.0000000E+00
   70   0.0000000E+00
   71  -0.1538835E-04
   72   0.0000000E+00
   73  -0.1530773E-04
   74   0.0000000E+00
   75  -0.2148517E-04
   76   0.0000000E+00
   77  -0.5401725E-04
   78  -0.1270199E-03
   79   0.0000000E+00
   80   0.0000000E+00
   81  -0.7007612E-04
   82  -0.1508141E-02
   83   0.0000000E+00
   84   0.0000000E+00
   85  -0.7263325E-03
   86  -0.2848165E-04
   87   0.0000000E+00
   88   0.0000000E+00
   89   0.0000000E+00
   90  -0.3609543E-04
   91   0.0000000E+00
   92   0.6049001E-04
   93   0.0000000E+00
   94   0.0000000E+00
   95  -0.4183584E-04
   96  -0.1202498E-03
   97   0.0000000E+00
   98   0.0000000E+00
   99   0.2519574E-03
  100   0.3163545E-04
  101   0.0000000E+00
  102   0.0000000E+00
  103   0.0000000E+00
  104   0.3797501E-04
  105  -0.7014404E+00
  106  -0.1538681E-01
  107   0.1208491E-03
  108  -0.1190863E-03
  109   0.5260679E-04
  110   0.2160572E-02
  111  -0.2860149E-03
  112   0.2817414E-03
  113  -0.3011809E-04
  114  -0.3644783E-04
  115   0.1740209E-04
  116  -0.1718562E-04
  117   0.0000000E+00
  118  -0.2651165E-04
  119  -0.7014404E+00
  120  -0.1538681E-01
  121  -0.1208491E-03
  122   0.1190863E-03
  123   0.5260679E-04
  124   0.2160572E-02
  125   0.2860149E-03
  126  -0.2817414E-03
  127  -0.3011809E-04
  128  -0.3644783E-04
  129  -0.1740209E-04
  130   0.1718562E-04
  131   0.0000000E+00
  132  -0.2651165E-04
  133  -0.1374910E-03
  134  -0.3417565E-03
  135   0.1061910E-04
  136   0.0000000E+00
  137  -0.3631199E-04
  138  -0.7647348E-04
  139  -0.3526218E-03
  140  -0.1724334E-04
  141   0.1787766E-04
  142   0.2790646E-04
  143  -0.1374910E-03
  144  -0.3417565E-03
  145  -0.1061910E-04
  146   0.0000000E+00
  147  -0.3631199E-04
  148  -0.7647348E-04
  149  -0.3526218E-03
  150   0.1724334E-04
  151  -0.1787766E-04
  152   0.2790646E-04
 Sym   = 1A
 Ene   =     -15.582209
 Spin  = ALPHA+BETA
 Occup =  2.0000
    1   0.5401725E-04
    2   0.1270199E-03
    3   0.0000000E+00
    4   0.0000000E+00
    5  -0.7007612E-04
    6   0.1508141E-02
    7   0.0000000E+00
    8   0.0000000E+00
    9  -0.7263325E-03
   10   0.2848165E-04
   11   0.0000000E+00
   12   0.0000000E+00
   13   0.0000000E+00
   14  -0.3609543E-04
   15   0.0000000E+00
   16  -0.6049001E-04
   17   0.0000000E+00
   18   0.0000000E+00
   19  -0.4183584E-04
   20   0.1202498E-03
   21   0.0000000E+00
   22   0.0000000E+00
   23   0.2519574E-03
   24  -0.3163545E-04
   25   0.0000000E+00
   26   0.0000000E+00
   27   0.0000000E+00
   28   0.3797501E-04
   29   0.7014404E+00
   30   0.1538681E-01
   31  -0.1208491E-03
   32  -0.1190863E-03
   33   0.5260679E-04
   34  -0.2160572E-02
   35   0.2860149E-03
   36   0.2817414E-03
   37  -0.3011809E-04
   38   0.3644783E-04
   39   0.1740209E-04
   40   0.1718562E-04
   41   0.0000000E+00
   42  -0.2651165E-04
   43   0.7014404E+00
   44   0.1538681E-01
   45   0.1208491E-03
   46   0.1190863E-03
   47   0.5260679E-04
   48  -0.2160572E-02
   49  -0.2860149E-03
   50  -0.2817414E-03
   51  -0.3011809E-04
   52   0.3644783E-04
   53  -0.1740209E-04
   54  -0.1718562E-04
   55   0.0000000E+00
   56  -0.2651165E-04
   57   0.1374910E-03
   58   0.3417565E-03
   59  -0.1061910E-04
   60   0.0000000E+00
   61  -0.3631199E-04
   62   0.7647348E-04
   63   0.3526218E-03
   64   0.1724334E-04
   65   0.1787766E-04
   66   0.2790646E-04
   67   0.1374910E-03
   68   0.3417565E-03
   69   0.1061910E-04
   70   0.0000000E+00
   71  -0.3631199E-04
   72   0.7647348E-04
   73   0.3526218E-03
   74  -0.1724334E-04
   75  -0.1787766E-04
   76   0.2790646E-04
   77   0.0000000E+00
   78   0.0000000E+00
   79  -0.3169440E-04
   80   0.1876079E-04
   81   0.0000000E+00
   82   0.0000000E+00
   83  -0.6008527E-04
   84   0.5263407E-04
   85   0.0000000E+00
   86   0.0000000E+00
   87   0.3004811E-04
   88   0.3641980E-04
   89   0.0000000E+00
   90   0.0000000E+00
   91   0.0000000E+00
   92   0.0000000E+00
   93  -0.5824052E-04
   94  -0.5975588E-04
   95   0.0000000E+00
   96   0.0000000E+00
   97   0.1811349E-03
   98   0.1678943E-03
   99   0.0000000E+00
  100   0.0000000E+00
  101   0.0000000E+00
  102   0.0000000E+00
  103   0.0000000E+00
  104   0.0000000E+00
  105  -0.5439268E-01
  106  -0.1173544E-02
  107   0.3862118E-04
  108   0.0000000E+00
  109   0.1135185E-04
  110   0.9330598E-04
  111  -0.1119756E-03
  112   0.1976927E-04
  113  -0.4004837E-04
  114   0.0000000E+00
  115   0.0000000E+00
  116  -0.1247365E-04
  117   0.0000000E+00
  118   0.0000000E+00
  119   0.5439268E-01
  120   0.1173544E-02
  121   0.3862118E-04
  122   0.0000000E+00
  123  -0.1135185E-04
  124  -0.9330598E-04
  125  -0.1119756E-03
  126   0.1976927E-04
  127   0.4004837E-04
  128   0.0000000E+00
  129   0.0000000E+00
  130  -0.1247365E-04
  131   0.0000000E+00
  132   0.0000000E+00
  133   0.0000000E+00
  134  -0.1762657E-04
  135   0.0000000E+00
  136   0.0000000E+00
  137  -0.1538835E-04
  138   0.0000000E+00
  139   0.1530773E-04
  140   0.0000000E+00
  141   0.2148517E-04
  142   0.0000000E+00
  143   0.0000000E+00
  144   0.1762657E-04
  145   0.0000000E+00
  146   0.0000000E+00
  147   0.1538835E-04
  148   0.0000000E+00
  149  -0.1530773E-04
  150   0.0000000E+00
  151   0.2148517E-04
  152   0.0000000E+00
 Sym   = 1A
 Ene   =     -11.394697
 Spin  = ALPHA+BETA
 Occup =  2.0000
    1   0.0000000E+00
    2   0.0000000E+00
    3   0.2102231E-04
    4   0.0000000E+00
    5   0.0000000E+00
    6   0.0000000E+00
    7   0.2566740E-03
    8   0.3178976E-03
    9   0.0000000E+00
   10   0.0000000E+00
   11  -0.5651739E-04
   12  -0.4171327E-04
   13   0.0000000E+00
   14   0.0000000E+00
   15   0.0000000E+00
   16   0.0000000E+00
   17  -0.1800097E-04
   18   0.1125758E-04
   19   0.0000000E+00
   20   0.0000000E+00
   21   0.4675503E-04
   22  -0.6705965E-04
   23   0.0000000E+00
   24   0.0000000E+00
   25   0.2496746E-04
   26   0.2614558E-04
   27   0.0000000E+00
   28   0.0000000E+00
   29   0.0000000E+00
   30   0.3792927E-04
   31  -0.1219374E-04
   32  -0.2761004E-04
   33   0.0000000E+00
   34  -0.1796605E-03
   35   0.2441994E-03
   36   0.2739559E-03
   37   0.1388259E-03
   38  -0.4546746E-04
   39   0.4936262E-04
   40   0.4319197E-04
   41   0.0000000E+00
   42   0.1144745E-04
   43   0.0000000E+00
   44  -0.3792927E-04
   45  -0.1219374E-04
   46  -0.2761004E-04
   47   0.0000000E+00
   48   0.1796605E-03
   49   0.2441994E-03
   50   0.2739559E-03
   51  -0.1388259E-03
   52   0.4546746E-04
   53   0.4936262E-04
   54   0.4319197E-04
   55   0.0000000E+00
   56  -0.1144745E-04
   57   0.0000000E+00
   58   0.2940242E-03
   59  -0.1529040E-04
   60  -0.1478718E-04
   61   0.6660229E-04
   62   0.1765819E-04
   63  -0.5060414E-03
   64   0.5651685E-04
   65   0.5056715E-04
   66   0.3633170E-04
   67   0.0000000E+00
   68  -0.2940242E-03
   69  -0.1529040E-04
   70  -0.1478718E-04
   71  -0.6660229E-04
   72  -0.1765819E-04
   73   0.5060414E-03
   74   0.5651685E-04
   75   0.5056715E-04
   76  -0.3633170E-04
   77  -0.9954220E+00
   78  -0.2091241E-01
   79   0.0000000E+00
   80   0.0000000E+00
   81   0.0000000E+00
   82   0.2315177E-02
   83   0.0000000E+00
   84   0.0000000E+00
   85   0.2320662E-03
   86  -0.5218173E-03
   87   0.0000000E+00
   88   0.0000000E+00
   89   0.0000000E+00
   90   0.5348841E-03
   91   0.2535416E-03
   92  -0.2370278E-03
   93   0.0000000E+00
   94   0.0000000E+00
   95  -0.3868916E-03
   96   0.0000000E+00
   97   0.0000000E+00
   98   0.0000000E+00
   99   0.2830586E-03
  100   0.7539787E-04
  101   0.0000000E+00
  102   0.0000000E+00
  103   0.0000000E+00
  104  -0.2737258E-04
  105   0.2482660E-03
  106  -0.2416190E-03
  107   0.1629346E-03
  108  -0.1562825E-03
  109   0.1319875E-03
  110   0.6742247E-04
  111   0.2864441E-04
  112  -0.4571174E-04
  113   0.5467903E-04
  114   0.7558816E-04
  115  -0.1341425E-04
  116   0.1221787E-04
  117   0.0000000E+00