[Molden Format]
[SpaceGroup] (Number)
1

[Operators]
x, y, z

[Cell] (Angs)
      0.00000000      0.00000000      0.05031959        0.0000      0.0000      0.0000

[CellAxes] (Angs)
    5.56500000    0.00000000    0.00000000
    0.00000000    5.56500000    0.00000000
    0.00000000    0.00000000    4.68400000

[Atoms] (Fractional)
C      1     6      0.0000000000E+00   -0.5000000000E+00    0.3260000000E+00
O      2     8      0.0000000000E+00   -0.5000000000E+00   -0.4047000000E+00
N      3     7      0.1459000000E+00   -0.3541000000E+00    0.1766000000E+00
N      4     7     -0.1459000000E+00    0.3541000000E+00    0.1766000000E+00
H      5     1      0.1441000000E+00   -0.3559000000E+00   -0.3800000000E-01
H      6     1      0.2575000000E+00   -0.2425000000E+00    0.2827000000E+00
H      7     1     -0.1441000000E+00    0.3559000000E+00   -0.3800000000E-01
H      8     1     -0.2575000000E+00    0.2425000000E+00    0.2827000000E+00
C      9     6      0.5000000000E+00    0.0000000000E+00   -0.3260000000E+00
O     10     8      0.5000000000E+00    0.0000000000E+00    0.4047000000E+00
N     11     7     -0.3541000000E+00   -0.1459000000E+00   -0.1766000000E+00
N     12     7      0.3541000000E+00    0.1459000000E+00   -0.1766000000E+00
H     13     1     -0.3559000000E+00   -0.1441000000E+00    0.3800000000E-01
H     14     1     -0.2425000000E+00   -0.2575000000E+00   -0.2827000000E+00
H     15     1      0.3559000000E+00    0.1441000000E+00    0.3800000000E-01
H     16     1      0.2425000000E+00    0.2575000000E+00   -0.2827000000E+00
[5D]
[7F]
[GTO]
   1
s       6
     3047.52000000        0.53375539
      456.42400000        0.98927438
      103.65300000        1.59189144
       29.22580000        2.06423373
        9.34863000        1.78503360
        3.18904000        0.61701885
sp       2
        3.66498000       -0.74738434        1.70917758
        0.77054500        0.71266103        0.88562206
sp       1
        0.19585700        0.20982847        0.18572226
d       1
        0.80000000        1.92920137

   2
s       6
     5472.27000000        0.83080904
      817.80600000        1.53730975
      186.44600000        2.46782617
       53.02300000        3.21222537
       17.18000000        2.80501243
        5.91196000        0.98404774
sp       2
        7.40294000       -1.29369515        4.25723044
        1.57620000        1.22471212        2.14975723
sp       1
        0.37368400        0.34063437        0.41645753
d       1
        0.80000000        1.92920137

   3
s       6
     4150.11000000        0.68006065
      620.08400000        1.25443804
      141.68800000        2.00881384
       40.33670000        2.60742709
       13.02670000        2.27809981
        4.47003000        0.80118832
sp       2
        5.42522000       -1.04710105        2.80858564
        1.14915000        0.96855007        1.45673455
sp       1
        0.28320500        0.27668510        0.29448707
d       1
        0.80000000        1.92920137

   4
s       6
     4150.11000000        0.68006065
      620.08400000        1.25443804
      141.68800000        2.00881384
       40.33670000        2.60742709
       13.02670000        2.27809981
        4.47003000        0.80118832
sp       2
        5.42522000       -1.04710105        2.80858564
        1.14915000        0.96855007        1.45673455
sp       1
        0.28320500        0.27668510        0.29448707
d       1
        0.80000000        1.92920137

   5
s       2
        5.44717800        0.39715132
        0.82454724        0.55792004
s       1
        0.18319158        0.19956723
p       1
        1.10000000        1.60576114

   6
s       2
        5.44717800        0.39715132
        0.82454724        0.55792004
s       1
        0.18319158        0.19956723
p       1
        1.10000000        1.60576114

   7
s       2
        5.44717800        0.39715132
        0.82454724        0.55792004
s       1
        0.18319158        0.19956723
p       1
        1.10000000        1.60576114

   8
s       2
        5.44717800        0.39715132
        0.82454724        0.55792004
s       1
        0.18319158        0.19956723
p       1
        1.10000000        1.60576114

   9
s       6
     3047.52000000        0.53375539
      456.42400000        0.98927438
      103.65300000        1.59189144
       29.22580000        2.06423373
        9.34863000        1.78503360
        3.18904000        0.61701885
sp       2
        3.66498000       -0.74738434        1.70917758
        0.77054500        0.71266103        0.88562206
sp       1
        0.19585700        0.20982847        0.18572226
d       1
        0.80000000        1.92920137

  10
s       6
     5472.27000000        0.83080904
      817.80600000        1.53730975
      186.44600000        2.46782617
       53.02300000        3.21222537
       17.18000000        2.80501243
        5.91196000        0.98404774
sp       2
        7.40294000       -1.29369515        4.25723044
        1.57620000        1.22471212        2.14975723
sp       1
        0.37368400        0.34063437        0.41645753
d       1
        0.80000000        1.92920137

  11
s       6
     4150.11000000        0.68006065
      620.08400000        1.25443804
      141.68800000        2.00881384
       40.33670000        2.60742709
       13.02670000        2.27809981
        4.47003000        0.80118832
sp       2
        5.42522000       -1.04710105        2.80858564
        1.14915000        0.96855007        1.45673455
sp       1
        0.28320500        0.27668510        0.29448707
d       1
        0.80000000        1.92920137

  12
s       6
     4150.11000000        0.68006065
      620.08400000        1.25443804
      141.68800000        2.00881384
       40.33670000        2.60742709
       13.02670000        2.27809981
        4.47003000        0.80118832
sp       2
        5.42522000       -1.04710105        2.80858564
        1.14915000        0.96855007        1.45673455
sp       1
        0.28320500        0.27668510        0.29448707
d       1
        0.80000000        1.92920137

  13
s       2
        5.44717800        0.39715132
        0.82454724        0.55792004
s       1
        0.18319158        0.19956723
p       1
        1.10000000        1.60576114

  14
s       2
        5.44717800        0.39715132
        0.82454724        0.55792004
s       1
        0.18319158        0.19956723
p       1
        1.10000000        1.60576114

  15
s       2
        5.44717800        0.39715132
        0.82454724        0.55792004
s       1
        0.18319158        0.19956723
p       1
        1.10000000        1.60576114

  16
s       2
        5.44717800        0.39715132
        0.82454724        0.55792004
s       1
        0.18319158        0.19956723
p       1
        1.10000000        1.60576114

[MO]
 Sym   = 1A
 Ene   =     -20.553500
 Spin  = ALPHA+BETA
 Occup =  2.0000
    1   0.0000000E+00
    2   0.1983066E-04
    3   0.0000000E+00
    4   0.0000000E+00
    5   0.0000000E+00
    6  -0.1683617E-03
    7   0.0000000E+00
    8   0.0000000E+00
    9  -0.9481278E-04
   10   0.0000000E+00
   11   0.0000000E+00
   12   0.0000000E+00
   13   0.0000000E+00
   14  -0.2219478E-04
   15   0.5384803E-03
   16   0.0000000E+00
   17   0.0000000E+00
   18   0.0000000E+00
   19   0.0000000E+00
   20   0.9403230E-04
   21   0.0000000E+00
   22   0.0000000E+00
   23  -0.6963338E-04
   24   0.0000000E+00
   25   0.0000000E+00
   26   0.0000000E+00
   27   0.0000000E+00
   28   0.0000000E+00
   29   0.0000000E+00
   30  -0.1191328E-04
   31  -0.1607700E-04
   32  -0.1607700E-04
   33  -0.2266021E-04
   34   0.0000000E+00
   35   0.0000000E+00
   36   0.0000000E+00
   37   0.1006303E-03
   38   0.0000000E+00
   39  -0.1505925E-04
   40  -0.1505925E-04
   41   0.0000000E+00
   42   0.0000000E+00
   43   0.0000000E+00
   44  -0.1191328E-04
   45   0.1607700E-04
   46   0.1607700E-04
   47  -0.2266021E-04
   48   0.0000000E+00
   49   0.0000000E+00
   50   0.0000000E+00
   51   0.1006303E-03
   52   0.0000000E+00
   53   0.1505925E-04
   54   0.1505925E-04
   55   0.0000000E+00
   56   0.0000000E+00
   57   0.2834401E-04
   58   0.3452307E-04
   59   0.0000000E+00
   60   0.0000000E+00
   61   0.1386786E-04
   62   0.1006960E-04
   63   0.0000000E+00
   64  -0.2139182E-04
   65  -0.2139182E-04
   66  -0.1702063E-04
   67   0.2834401E-04
   68   0.3452307E-04
   69   0.0000000E+00
   70   0.0000000E+00
   71   0.1386786E-04
   72   0.1006960E-04
   73   0.0000000E+00
   74   0.2139182E-04
   75   0.2139182E-04
   76  -0.1702063E-04
   77   0.1491831E-04
   78   0.1848740E-03
   79   0.0000000E+00
   80   0.0000000E+00
   81  -0.2531254E-03
   82   0.7676566E-03
   83   0.0000000E+00
   84   0.0000000E+00
   85  -0.9685303E-03
   86  -0.5887544E-04
   87   0.0000000E+00
   88   0.0000000E+00
   89   0.0000000E+00
   90  -0.2234219E-04
   91   0.9947025E+00
   92   0.2079177E-01
   93   0.0000000E+00
   94   0.0000000E+00
   95   0.1429003E-02
   96  -0.1664689E-02
   97   0.0000000E+00
   98   0.0000000E+00
   99  -0.1030860E-02
  100  -0.1148182E-03
  101   0.0000000E+00
  102   0.0000000E+00
  103   0.0000000E+00
  104  -0.6310395E-04
  105   0.0000000E+00
  106  -0.1740600E-04
  107   0.2129196E-04
  108  -0.2129196E-04
  109   0.1078058E-04
  110   0.8516495E-04
  111  -0.1112777E-03
  112   0.1112777E-03
  113   0.1667121E-03
  114  -0.3711883E-04
  115  -0.4506707E-04
  116   0.4506707E-04
  117   0.0000000E+00
  118  -0.3770097E-04
  119   0.0000000E+00
  120  -0.1740600E-04
  121  -0.2129196E-04
  122   0.2129196E-04
  123   0.1078058E-04
  124   0.8516495E-04
  125   0.1112777E-03
  126  -0.1112777E-03
  127   0.1667121E-03
  128  -0.3711883E-04
  129   0.4506707E-04
  130  -0.4506707E-04
  131   0.0000000E+00
  132  -0.3770097E-04
  133  -0.4011716E-04
  134  -0.3394936E-04
  135   0.1641630E-04
  136  -0.1641630E-04
  137  -0.1659081E-04
  138  -0.1381478E-04
  139   0.8501255E-04
  140   0.1165236E-04
  141  -0.1165236E-04
  142   0.0000000E+00
  143  -0.4011716E-04
  144  -0.3394936E-04
  145  -0.1641630E-04
  146   0.1641630E-04
  147  -0.1659081E-04
  148  -0.1381478E-04
  149   0.8501255E-04
  150  -0.1165236E-04
  151   0.1165236E-04
  152   0.0000000E+00
 Sym   = 1A
 Ene   =     -20.553500
 Spin  = ALPHA+BETA
 Occup =  2.0000
    1   0.1491876E-04
    2   0.1848754E-03
    3   0.0000000E+00
    4   0.0000000E+00
    5   0.2531239E-03
    6   0.7676360E-03
    7   0.0000000E+00
    8   0.0000000E+00
    9   0.9685165E-03
   10  -0.5887883E-04
   11   0.0000000E+00
   12   0.0000000E+00
   13   0.0000000E+00
   14   0.2234104E-04
   15   0.9947025E+00
   16   0.2079176E-01
   17   0.0000000E+00
   18   0.0000000E+00
   19  -0.1429001E-02
   20  -0.1664670E-02
   21   0.0000000E+00
   22   0.0000000E+00
   23   0.1030849E-02
   24  -0.1148149E-03
   25   0.0000000E+00
   26   0.0000000E+00
   27   0.0000000E+00
   28   0.6310350E-04
   29   0.0000000E+00
   30  -0.1740836E-04
   31   0.2129160E-04
   32   0.2129160E-04
   33  -0.1078100E-04
   34   0.8516891E-04
   35  -0.1112793E-03
   36  -0.1112793E-03
   37  -0.1667105E-03
   38  -0.3711802E-04
   39   0.4506723E-04
   40   0.4506723E-04
   41   0.0000000E+00
   42   0.3770045E-04
   43   0.0000000E+00
   44  -0.1740836E-04
   45  -0.2129160E-04
   46  -0.2129160E-04
   47  -0.1078100E-04
   48   0.8516891E-04
   49   0.1112793E-03
   50   0.1112793E-03
   51  -0.1667105E-03
   52  -0.3711802E-04
   53  -0.4506723E-04
   54  -0.4506723E-04
   55   0.0000000E+00
   56   0.3770045E-04
   57  -0.4011727E-04
   58  -0.3395064E-04
   59   0.1641582E-04
   60   0.1641582E-04
   61   0.1658892E-04
   62  -0.1381678E-04
   63   0.8501615E-04
   64   0.1165308E-04
   65   0.1165308E-04
   66   0.0000000E+00
   67  -0.4011727E-04
   68  -0.3395064E-04
   69  -0.1641582E-04
   70  -0.1641582E-04
   71   0.1658892E-04
   72  -0.1381678E-04
   73   0.8501615E-04
   74  -0.1165308E-04
   75  -0.1165308E-04
   76   0.0000000E+00
   77   0.0000000E+00
   78  -0.1982907E-04
   79   0.0000000E+00
   80   0.0000000E+00
   81   0.0000000E+00
   82   0.1683555E-03
   83   0.0000000E+00
   84   0.0000000E+00
   85  -0.9482603E-04
   86   0.0000000E+00
   87   0.0000000E+00
   88   0.0000000E+00
   89   0.0000000E+00
   90  -0.2219470E-04
   91  -0.5384800E-03
   92   0.0000000E+00
   93   0.0000000E+00
   94   0.0000000E+00
   95   0.0000000E+00
   96  -0.9403806E-04
   97   0.0000000E+00
   98   0.0000000E+00
   99  -0.6963801E-04
  100   0.0000000E+00
  101   0.0000000E+00
  102   0.0000000E+00
  103   0.0000000E+00
  104   0.0000000E+00
  105   0.0000000E+00
  106   0.1191405E-04
  107   0.1607656E-04
  108  -0.1607656E-04
  109  -0.2266108E-04
  110   0.0000000E+00
  111   0.0000000E+00
  112   0.0000000E+00
  113   0.1006343E-03
  114   0.0000000E+00
  115  -0.1505807E-04
  116   0.1505807E-04
  117   0.0000000E+00
  118   0.0000000E+00
  119   0.0000000E+00
  120   0.1191405E-04
  121  -0.1607656E-04
  122   0.1607656E-04
  123  -0.2266108E-04
  124   0.0000000E+00
  125   0.0000000E+00
  126   0.0000000E+00
  127   0.1006343E-03
  128   0.0000000E+00
  129   0.1505807E-04
  130  -0.1505807E-04
  131   0.0000000E+00
  132   0.0000000E+00
  133  -0.2834504E-04
  134  -0.3452471E-04
  135   0.0000000E+00
  136   0.0000000E+00
  137   0.1386791E-04
  138  -0.1006835E-04
  139   0.0000000E+00
  140   0.2139203E-04
  141  -0.2139203E-04
  142  -0.1701796E-04
  143  -0.2834504E-04
  144  -0.3452471E-04
  145   0.0000000E+00
  146   0.0000000E+00
  147   0.1386791E-04
  148  -0.1006835E-04
  149   0.0000000E+00
  150  -0.2139203E-04
  151   0.2139203E-04
  152  -0.1701796E-04
 Sym   = 1A
 Ene   =     -15.582216
 Spin  = ALPHA+BETA
 Occup =  2.0000
    1   0.0000000E+00
    2   0.0000000E+00
    3   0.1762610E-03
    4   0.1762610E-03
    5   0.0000000E+00
    6   0.0000000E+00
    7   0.9098156E-03
    8   0.9098156E-03
    9   0.0000000E+00
   10   0.0000000E+00
   11   0.3888897E-04
   12   0.3888897E-04
   13   0.0000000E+00
   14   0.0000000E+00
   15   0.0000000E+00
   16   0.0000000E+00
   17   0.4712347E-04
   18   0.4712347E-04
   19   0.0000000E+00
   20   0.0000000E+00
   21  -0.2983729E-03
   22  -0.2983729E-03
   23   0.0000000E+00
   24   0.0000000E+00
   25   0.5429917E-04
   26   0.5429917E-04
   27   0.0000000E+00
   28   0.0000000E+00
   29   0.7035463E+00
   30   0.1548310E-01
   31  -0.1457522E-03
   32  -0.1457522E-03
   33   0.1034976E-03
   34  -0.2252972E-02
   35   0.1531792E-03
   36   0.1531792E-03
   37  -0.4406422E-03
   38  -0.2626835E-04
   39   0.0000000E+00
   40   0.0000000E+00
   41   0.0000000E+00
   42  -0.4315890E-04
   43  -0.7035463E+00
   44  -0.1548310E-01
   45  -0.1457522E-03
   46  -0.1457522E-03
   47  -0.1034976E-03
   48   0.2252972E-02
   49   0.1531792E-03
   50   0.1531792E-03
   51   0.4406422E-03
   52   0.2626835E-04
   53   0.0000000E+00
   54   0.0000000E+00
   55   0.0000000E+00
   56   0.4315890E-04
   57   0.1050645E-03
   58   0.2239015E-03
   59  -0.2083324E-04
   60  -0.2083324E-04
   61  -0.4512165E-04
   62   0.2034229E-03
   63   0.3552864E-03
   64   0.0000000E+00
   65   0.0000000E+00
   66   0.1320614E-04
   67  -0.1050645E-03
   68  -0.2239015E-03
   69  -0.2083324E-04
   70  -0.2083324E-04
   71   0.4512165E-04
   72  -0.2034229E-03
   73  -0.3552864E-03
   74   0.0000000E+00
   75   0.0000000E+00
   76  -0.1320614E-04
   77   0.0000000E+00
   78   0.0000000E+00
   79   0.5096264E-04
   80   0.5096264E-04
   81   0.0000000E+00
   82   0.0000000E+00
   83  -0.8552355E-04
   84  -0.8552355E-04
   85   0.0000000E+00
   86   0.0000000E+00
   87  -0.1527618E-04
   88  -0.1527618E-04
   89   0.0000000E+00
   90   0.0000000E+00
   91   0.0000000E+00
   92   0.0000000E+00
   93   0.4592237E-04
   94   0.4592237E-04
   95   0.0000000E+00
   96   0.0000000E+00
   97  -0.1254967E-03
   98  -0.1254967E-03
   99   0.0000000E+00
  100   0.0000000E+00
  101   0.1463356E-04
  102   0.1463356E-04
  103   0.0000000E+00
  104   0.0000000E+00
  105   0.0000000E+00
  106   0.0000000E+00
  107   0.1493567E-04
  108   0.1493567E-04
  109   0.0000000E+00
  110   0.0000000E+00
  111  -0.1702628E-04
  112  -0.1702628E-04
  113   0.0000000E+00
  114   0.0000000E+00
  115   0.0000000E+00
  116   0.0000000E+00
  117  -0.1184753E-04
  118   0.0000000E+00
  119   0.0000000E+00
  120   0.0000000E+00
  121   0.1493567E-04
  122   0.1493567E-04
  123   0.0000000E+00
  124   0.0000000E+00
  125  -0.1702628E-04
  126  -0.1702628E-04
  127   0.0000000E+00
  128   0.0000000E+00
  129   0.0000000E+00
  130   0.0000000E+00
  131   0.1184753E-04
  132   0.0000000E+00
  133   0.0000000E+00
  134   0.0000000E+00
  135   0.0000000E+00
  136   0.0000000E+00
  137   0.0000000E+00
  138   0.0000000E+00
  139   0.0000000E+00
  140   0.0000000E+00
  141   0.0000000E+00
  142   0.0000000E+00
  143   0.0000000E+00
  144   0.0000000E+00
  145   0.0000000E+00
  146   0.0000000E+00
  147   0.0000000E+00
  148   0.0000000E+00
  149   0.0000000E+00
  150   0.0000000E+00
  151   0.0000000E+00
  152   0.0000000E+00
 Sym   = 1A
 Ene   =     -15.582216
 Spin  = ALPHA+BETA
 Occup =  2.0000
    1   0.0000000E+00
    2   0.0000000E+00
    3  -0.5096264E-04
    4   0.5096264E-04
    5   0.0000000E+00
    6   0.0000000E+00
    7   0.8552355E-04
    8  -0.8552355E-04
    9   0.0000000E+00
   10   0.0000000E+00
   11  -0.1527618E-04
   12   0.1527618E-04
   13   0.0000000E+00
   14   0.0000000E+00
   15   0.0000000E+00
   16   0.0000000E+00
   17  -0.4592237E-04
   18   0.4592237E-04
   19   0.0000000E+00
   20   0.0000000E+00
   21   0.1254967E-03
   22  -0.1254967E-03
   23   0.0000000E+00
   24   0.0000000E+00
   25   0.1463356E-04
   26  -0.1463356E-04
   27   0.0000000E+00
   28   0.0000000E+00
   29   0.0000000E+00
   30   0.0000000E+00
   31  -0.1493567E-04
   32   0.1493567E-04
   33   0.0000000E+00
   34   0.0000000E+00
   35   0.1702628E-04
   36  -0.1702628E-04
   37   0.0000000E+00
   38   0.0000000E+00
   39   0.0000000E+00
   40   0.0000000E+00
   41   0.1184753E-04
   42   0.0000000E+00
   43   0.0000000E+00
   44   0.0000000E+00
   45  -0.1493567E-04
   46   0.1493567E-04
   47   0.0000000E+00
   48   0.0000000E+00
   49   0.1702628E-04
   50  -0.1702628E-04
   51   0.0000000E+00
   52   0.0000000E+00
   53   0.0000000E+00
   54   0.0000000E+00
   55  -0.1184753E-04
   56   0.0000000E+00
   57   0.0000000E+00
   58   0.0000000E+00
   59   0.0000000E+00
   60   0.0000000E+00
   61   0.0000000E+00
   62   0.0000000E+00
   63   0.0000000E+00
   64   0.0000000E+00
   65   0.0000000E+00
   66   0.0000000E+00
   67   0.0000000E+00
   68   0.0000000E+00
   69   0.0000000E+00
   70   0.0000000E+00
   71   0.0000000E+00
   72   0.0000000E+00
   73   0.0000000E+00
   74   0.0000000E+00
   75   0.0000000E+00
   76   0.0000000E+00
   77   0.0000000E+00
   78   0.0000000E+00
   79   0.1762610E-03
   80  -0.1762610E-03
   81   0.0000000E+00
   82   0.0000000E+00
   83   0.9098156E-03
   84  -0.9098156E-03
   85   0.0000000E+00
   86   0.0000000E+00
   87  -0.3888897E-04
   88   0.3888897E-04
   89   0.0000000E+00
   90   0.0000000E+00
   91   0.0000000E+00
   92   0.0000000E+00
   93   0.4712347E-04
   94  -0.4712347E-04
   95   0.0000000E+00
   96   0.0000000E+00
   97  -0.2983729E-03
   98   0.2983729E-03
   99   0.0000000E+00
  100   0.0000000E+00
  101  -0.5429917E-04
  102   0.5429917E-04
  103   0.0000000E+00
  104   0.0000000E+00
  105   0.7035463E+00
  106   0.1548310E-01
  107  -0.1457522E-03
  108   0.1457522E-03
  109  -0.1034976E-03
  110  -0.2252972E-02
  111   0.1531792E-03
  112  -0.1531792E-03
  113   0.4406422E-03
  114  -0.2626835E-04
  115   0.0000000E+00
  116   0.0000000E+00
  117   0.0000000E+00
  118   0.4315890E-04
  119  -0.7035463E+00
  120  -0.1548310E-01
  121  -0.1457522E-03
  122   0.1457522E-03
  123   0.1034976E-03
  124   0.2252972E-02
  125   0.1531792E-03
  126  -0.1531792E-03
  127  -0.4406422E-03
  128   0.2626835E-04
  129   0.0000000E+00
  130   0.0000000E+00
  131   0.0000000E+00
  132  -0.4315890E-04
  133   0.1050645E-03
  134   0.2239015E-03
  135  -0.2083324E-04
  136   0.2083324E-04
  137   0.4512165E-04
  138   0.2034229E-03
  139   0.3552864E-03
  140   0.0000000E+00
  141   0.0000000E+00
  142  -0.1320614E-04
  143  -0.1050645E-03
  144  -0.2239015E-03
  145  -0.2083324E-04
  146   0.2083324E-04
  147  -0.4512165E-04
  148  -0.2034229E-03
  149  -0.3552864E-03
  150   0.0000000E+00
  151   0.0000000E+00
  152   0.1320614E-04
 Sym   = 1A
 Ene   =     -15.582209
 Spin  = ALPHA+BETA
 Occup =  2.0000
    1   0.4729103E-04
    2   0.2872332E-04
    3   0.0000000E+00
    4   0.0000000E+00
    5  -0.1966563E-03
    6   0.1485770E-02
    7   0.0000000E+00
    8   0.0000000E+00
    9  -0.8600524E-03
   10  -0.2658639E-04
   11   0.0000000E+00
   12   0.0000000E+00
   13   0.0000000E+00
   14  -0.2223028E-04
   15   0.0000000E+00
   16   0.0000000E+00
   17   0.0000000E+00
   18   0.0000000E+00
   19   0.7847779E-04
   20   0.8623536E-04
   21   0.0000000E+00
   22   0.0000000E+00
   23  -0.2167610E-03
   24   0.1011882E-04
   25   0.0000000E+00
   26   0.0000000E+00
   27   0.0000000E+00
   28   0.1487899E-04
   29   0.7035460E+00
   30   0.1543030E-01
   31  -0.1277904E-03
   32  -0.1277904E-03
   33   0.5614624E-04
   34  -0.2156008E-02
   35   0.3513479E-03
   36   0.3513479E-03
   37  -0.3092022E-04
   38   0.3158107E-04
   39   0.3023128E-04
   40   0.3023128E-04
   41   0.0000000E+00
   42  -0.2348880E-04
   43   0.7035460E+00
   44   0.1543030E-01
   45   0.1277904E-03
   46   0.1277904E-03
   47   0.5614624E-04
   48  -0.2156008E-02
   49  -0.3513479E-03
   50  -0.3513479E-03
   51  -0.3092022E-04
   52   0.3158107E-04
   53  -0.3023128E-04
   54  -0.3023128E-04
   55   0.0000000E+00
   56  -0.2348880E-04
   57   0.1340190E-03
   58   0.3503619E-03
   59  -0.1203445E-04
   60  -0.1203445E-04
   61  -0.3792946E-04
   62   0.7479508E-04
   63   0.2538605E-03
   64   0.2128499E-04
   65   0.2128499E-04
   66   0.4113637E-04
   67   0.1340190E-03
   68   0.3503619E-03
   69   0.1203445E-04
   70   0.1203445E-04
   71  -0.3792946E-04
   72   0.7479508E-04
   73   0.2538605E-03
   74  -0.2128499E-04
   75  -0.2128499E-04
   76   0.4113637E-04
   77  -0.1401460E-04
   78  -0.7504437E-04
   79   0.0000000E+00
   80   0.0000000E+00
   81  -0.4234100E-04
   82   0.4607205E-03
   83   0.0000000E+00
   84   0.0000000E+00
   85   0.7458365E-04
   86   0.3459396E-04
   87   0.0000000E+00
   88   0.0000000E+00
   89   0.0000000E+00
   90  -0.3902199E-04
   91   0.0000000E+00
   92  -0.2511516E-04
   93   0.0000000E+00
   94   0.0000000E+00
   95   0.3063585E-04
   96  -0.1878446E-04
   97   0.0000000E+00
   98   0.0000000E+00
   99  -0.1613284E-03
  100  -0.4836906E-04
  101   0.0000000E+00
  102   0.0000000E+00
  103   0.0000000E+00
  104   0.2951685E-04
  105   0.2157086E-03
  106   0.3956557E-04
  107   0.0000000E+00
  108   0.0000000E+00
  109   0.0000000E+00
  110  -0.1936555E-03
  111   0.5129888E-04
  112  -0.5129888E-04
  113   0.1704490E-04
  114   0.0000000E+00
  115   0.0000000E+00
  116   0.0000000E+00
  117   0.0000000E+00
  118   0.2239125E-04
  119   0.2157086E-03
  120   0.3956557E-04
  121   0.0000000E+00
  122   0.0000000E+00
  123   0.0000000E+00
  124  -0.1936555E-03
  125  -0.5129888E-04
  126   0.5129888E-04
  127   0.1704490E-04
  128   0.0000000E+00
  129   0.0000000E+00
  130   0.0000000E+00
  131   0.0000000E+00
  132   0.2239125E-04
  133   0.0000000E+00
  134   0.3068552E-04
  135   0.0000000E+00
  136   0.0000000E+00
  137  -0.1742495E-04
  138   0.3055805E-04
  139  -0.5194903E-04
  140   0.0000000E+00
  141   0.0000000E+00
  142   0.0000000E+00
  143   0.0000000E+00
  144   0.3068552E-04
  145   0.0000000E+00
  146   0.0000000E+00
  147  -0.1742495E-04
  148   0.3055805E-04
  149  -0.5194903E-04
  150   0.0000000E+00
  151   0.0000000E+00
  152   0.0000000E+00
 Sym   = 1A
 Ene   =     -15.582209
 Spin  = ALPHA+BETA
 Occup =  2.0000
    1   0.1401713E-04
    2   0.7504281E-04
    3   0.0000000E+00
    4   0.0000000E+00
    5  -0.4234377E-04
    6  -0.4607118E-03
    7   0.0000000E+00
    8   0.0000000E+00
    9   0.7458817E-04
   10  -0.3459363E-04
   11   0.0000000E+00
   12   0.0000000E+00
   13   0.0000000E+00
   14  -0.3902003E-04
   15   0.0000000E+00
   16   0.2511559E-04
   17   0.0000000E+00
   18   0.0000000E+00
   19   0.3063562E-04
   20   0.1877870E-04
   21   0.0000000E+00
   22   0.0000000E+00
   23  -0.1613296E-03
   24   0.4836761E-04
   25   0.0000000E+00
   26   0.0000000E+00
   27   0.0000000E+00
   28   0.2951739E-04
   29  -0.2157086E-03
   30  -0.3956591E-04
   31   0.0000000E+00
   32   0.0000000E+00
   33   0.0000000E+00
   34   0.1936558E-03
   35  -0.5129798E-04
   36  -0.5129798E-04
   37   0.1704076E-04
   38   0.0000000E+00
   39   0.0000000E+00
   40   0.0000000E+00
   41   0.0000000E+00
   42   0.2239070E-04
   43  -0.2157086E-03
   44  -0.3956591E-04
   45   0.0000000E+00
   46   0.0000000E+00
   47   0.0000000E+00
   48   0.1936558E-03
   49   0.5129798E-04
   50   0.5129798E-04
   51   0.1704076E-04
   52   0.0000000E+00
   53   0.0000000E+00
   54   0.0000000E+00
   55   0.0000000E+00
   56   0.2239070E-04
   57   0.0000000E+00
   58  -0.3068732E-04
   59   0.0000000E+00
   60   0.0000000E+00
   61  -0.1742472E-04
   62  -0.3055837E-04
   63   0.5194847E-04
   64   0.0000000E+00
   65   0.0000000E+00
   66   0.0000000E+00
   67   0.0000000E+00
   68  -0.3068732E-04
   69   0.0000000E+00
   70   0.0000000E+00
   71  -0.1742472E-04
   72  -0.3055837E-04
   73   0.5194847E-04
   74   0.0000000E+00
   75   0.0000000E+00
   76   0.0000000E+00
   77   0.4729108E-04
   78   0.2871986E-04
   79   0.0000000E+00
   80   0.0000000E+00
   81   0.1966540E-03
   82   0.1485771E-02
   83   0.0000000E+00
   84   0.0000000E+00
   85   0.8600563E-03
   86  -0.2658514E-04
   87   0.0000000E+00
   88   0.0000000E+00
   89   0.0000000E+00
   90   0.2223320E-04
   91   0.0000000E+00
   92   0.0000000E+00
   93   0.0000000E+00
   94   0.0000000E+00
   95  -0.7847789E-04
   96   0.8623666E-04
   97   0.0000000E+00
   98   0.0000000E+00
   99   0.2167620E-03
  100   0.1011658E-04
  101   0.0000000E+00
  102   0.0000000E+00
  103   0.0000000E+00
  104  -0.1488107E-04
  105   0.7035460E+00
  106   0.1543031E-01
  107  -0.1277902E-03
  108   0.1277902E-03
  109  -0.5614719E-04
  110  -0.2156012E-02
  111   0.3513465E-03
  112  -0.3513465E-03
  113   0.3092182E-04
  114   0.3158037E-04
  115  -0.3022981E-04
  116   0.3022981E-04
  117   0.0000000E+00
  118   0.2348853E-04
  119   0.7035460E+00
  120   0.1543031E-01
  121   0.1277902E-03
  122  -0.1277902E-03
  123  -0.5614719E-04
  124  -0.2156012E-02
  125  -0.3513465E-03
  126   0.3513465E-03
  127   0.3092182E-04
  128   0.3158037E-04
  129   0.3022981E-04
  130  -0.3022981E-04
  131   0.0000000E+00
  132   0.2348853E-04
  133   0.1340188E-03
  134   0.3503604E-03
  135  -0.1203256E-04
  136   0.1203256E-04
  137   0.3793029E-04
  138   0.7479530E-04
  139   0.2538647E-03
  140   0.2128433E-04
  141  -0.2128433E-04
  142  -0.4113583E-04
  143   0.1340188E-03
  144   0.3503604E-03
  145   0.1203256E-04
  146  -0.1203256E-04
  147   0.3793029E-04
  148   0.7479530E-04
  149   0.2538647E-03
  150  -0.2128433E-04
  151   0.2128433E-04
  152  -0.4113583E-04
 Sym   = 1A
 Ene   =     -11.394697
 Spin  = ALPHA+BETA
 Occup =  2.0000
    1   0.9954173E+00
    2   0.2090851E-01
    3   0.0000000E+00
    4   0.0000000E+00
    5  -0.1838915E-04
    6  -0.2060979E-02
    7   0.0000000E+00
    8   0.0000000E+00
    9   0.2451065E-03
   10   0.5118614E-03
   11   0.0000000E+00
   12   0.0000000E+00
   13   0.0000000E+00
   14   0.5666923E-03
   15  -0.2510861E-03
   16   0.2580880E-03
   17   0.0000000E+00
   18   0.0000000E+00
   19  -0.3760579E-03
   20  -0.8609191E-04
   21   0.0000000E+00
   22   0.0000000E+00
   23   0.2586424E-03
   24  -0.7943212E-04
   25   0.0000000E+00
   26   0.0000000E+00
   27   0.0000000E+00
   28  -0.4431164E-04
   29  -0.2515536E-03
   30   0.2241396E-03
   31  -0.1698030E-03
   32  -0.1698030E-03
   33   0.1538534E-03
   34   0.2745692E-04
   35  -0.1412359E-04
   36  -0.1412359E-04
   37  -0.2471858E-03
   38  -0.3466133E-04
   39   0.0000000E+00
   40   0.0000000E+00
   41   0.0000000E+00
   42  -0.2005211E-03
   43  -0.2515536E-03
   44   0.2241396E-03
   45   0.1698030E-03
   46   0.1698030E-03
   47   0.1538534E-03
   48   0.2745692E-04
   49   0.1412359E-04
   50   0.1412359E-04
   51  -0.2471858E-03
   52  -0.3466133E-04
   53   0.0000000E+00
   54   0.0000000E+00
   55   0.0000000E+00
   56  -0.2005211E-03
   57   0.0000000E+00
   58  -0.1003401E-03
   59  -0.4878532E-04
   60  -0.4878532E-04
   61   0.3846061E-04
   62   0.0000000E+00
   63   0.3702139E-03
   64  -0.1014869E-03
   65  -0.1014869E-03
   66   0.0000000E+00
   67   0.0000000E+00
   68  -0.1003401E-03
   69   0.4878532E-04
   70   0.4878532E-04
   71   0.3846061E-04
   72   0.0000000E+00
   73   0.3702139E-03
   74   0.1014869E-03
   75   0.1014869E-03
   76   0.0000000E+00
   77  -0.2583983E-04
   78  -0.6271852E-04
   79   0.0000000E+00
   80   0.0000000E+00
   81   0.1167312E-04
   82   0.5960157E-03
   83   0.0000000E+00
   84   0.0000000E+00
   85   0.3377619E-04
   86   0.3752229E-04
   87   0.0000000E+00
   88   0.0000000E+00
   89   0.0000000E+00
   90  -0.7377963E-04
   91   0.0000000E+00
   92   0.5051167E-04
   93   0.0000000E+00
   94   0.0000000E+00
   95   0.0000000E+00
   96  -0.1983758E-03
   97   0.0000000E+00
   98   0.0000000E+00
   99  -0.7764731E-04
  100  -0.4595964E-04
  101   0.0000000E+00
  102   0.0000000E+00
  103   0.0000000E+00
  104   0.4103456E-04
  105   0.2998203E-04
  106   0.1727911E-03
  107   0.0000000E+00
  108   0.0000000E+00
  109   0.0000000E+00
  110  -0.7665495E-03
  111   0.1787280E-04
  112  -0.1787280E-04
  113   0.3322111E-04
  114  -0.3787104E-04
  115   0.0000000E+00
  116   0.0000000E+00
  117   0.0000000E+00