[Molden Format]
[SpaceGroup] (Number)
1

[Operators]
x, y, z

[Cell] (Angs)
      0.00000000      0.00000000      0.05031959        0.0000      0.0000      0.0000

[CellAxes] (Angs)
    5.56500000    0.00000000    0.00000000
    0.00000000    5.56500000    0.00000000
    0.00000000    0.00000000    4.68400000

[Atoms] (Fractional)
C      1     6      0.0000000000E+00   -0.5000000000E+00    0.3260000000E+00
O      2     8      0.0000000000E+00   -0.5000000000E+00   -0.4047000000E+00
N      3     7      0.1459000000E+00   -0.3541000000E+00    0.1766000000E+00
N      4     7     -0.1459000000E+00    0.3541000000E+00    0.1766000000E+00
H      5     1      0.1441000000E+00   -0.3559000000E+00   -0.3800000000E-01
H      6     1      0.2575000000E+00   -0.2425000000E+00    0.2827000000E+00
H      7     1     -0.1441000000E+00    0.3559000000E+00   -0.3800000000E-01
H      8     1     -0.2575000000E+00    0.2425000000E+00    0.2827000000E+00
C      9     6      0.5000000000E+00    0.0000000000E+00   -0.3260000000E+00
O     10     8      0.5000000000E+00    0.0000000000E+00    0.4047000000E+00
N     11     7     -0.3541000000E+00   -0.1459000000E+00   -0.1766000000E+00
N     12     7      0.3541000000E+00    0.1459000000E+00   -0.1766000000E+00
H     13     1     -0.3559000000E+00   -0.1441000000E+00    0.3800000000E-01
H     14     1     -0.2425000000E+00   -0.2575000000E+00   -0.2827000000E+00
H     15     1      0.3559000000E+00    0.1441000000E+00    0.3800000000E-01
H     16     1      0.2425000000E+00    0.2575000000E+00   -0.2827000000E+00
[5D]
[7F]
[GTO]
   1
s       6
     3047.52000000        0.53375539
      456.42400000        0.98927438
      103.65300000        1.59189144
       29.22580000        2.06423373
        9.34863000        1.78503360
        3.18904000        0.61701885
sp       2
        3.66498000       -0.74738434        1.70917758
        0.77054500        0.71266103        0.88562206
sp       1
        0.19585700        0.20982847        0.18572226
d       1
        0.80000000        1.92920137

   2
s       6
     5472.27000000        0.83080904
      817.80600000        1.53730975
      186.44600000        2.46782617
       53.02300000        3.21222537
       17.18000000        2.80501243
        5.91196000        0.98404774
sp       2
        7.40294000       -1.29369515        4.25723044
        1.57620000        1.22471212        2.14975723
sp       1
        0.37368400        0.34063437        0.41645753
d       1
        0.80000000        1.92920137

   3
s       6
     4150.11000000        0.68006065
      620.08400000        1.25443804
      141.68800000        2.00881384
       40.33670000        2.60742709
       13.02670000        2.27809981
        4.47003000        0.80118832
sp       2
        5.42522000       -1.04710105        2.80858564
        1.14915000        0.96855007        1.45673455
sp       1
        0.28320500        0.27668510        0.29448707
d       1
        0.80000000        1.92920137

   4
s       6
     4150.11000000        0.68006065
      620.08400000        1.25443804
      141.68800000        2.00881384
       40.33670000        2.60742709
       13.02670000        2.27809981
        4.47003000        0.80118832
sp       2
        5.42522000       -1.04710105        2.80858564
        1.14915000        0.96855007        1.45673455
sp       1
        0.28320500        0.27668510        0.29448707
d       1
        0.80000000        1.92920137

   5
s       2
        5.44717800        0.39715132
        0.82454724        0.55792004
s       1
        0.18319158        0.19956723
p       1
        1.10000000        1.60576114

   6
s       2
        5.44717800        0.39715132
        0.82454724        0.55792004
s       1
        0.18319158        0.19956723
p       1
        1.10000000        1.60576114

   7
s       2
        5.44717800        0.39715132
        0.82454724        0.55792004
s       1
        0.18319158        0.19956723
p       1
        1.10000000        1.60576114

   8
s       2
        5.44717800        0.39715132
        0.82454724        0.55792004
s       1
        0.18319158        0.19956723
p       1
        1.10000000        1.60576114

   9
s       6
     3047.52000000        0.53375539
      456.42400000        0.98927438
      103.65300000        1.59189144
       29.22580000        2.06423373
        9.34863000        1.78503360
        3.18904000        0.61701885
sp       2
        3.66498000       -0.74738434        1.70917758
        0.77054500        0.71266103        0.88562206
sp       1
        0.19585700        0.20982847        0.18572226
d       1
        0.80000000        1.92920137

  10
s       6
     5472.27000000        0.83080904
      817.80600000        1.53730975
      186.44600000        2.46782617
       53.02300000        3.21222537
       17.18000000        2.80501243
        5.91196000        0.98404774
sp       2
        7.40294000       -1.29369515        4.25723044
        1.57620000        1.22471212        2.14975723
sp       1
        0.37368400        0.34063437        0.41645753
d       1
        0.80000000        1.92920137

  11
s       6
     4150.11000000        0.68006065
      620.08400000        1.25443804
      141.68800000        2.00881384
       40.33670000        2.60742709
       13.02670000        2.27809981
        4.47003000        0.80118832
sp       2
        5.42522000       -1.04710105        2.80858564
        1.14915000        0.96855007        1.45673455
sp       1
        0.28320500        0.27668510        0.29448707
d       1
        0.80000000        1.92920137

  12
s       6
     4150.11000000        0.68006065
      620.08400000        1.25443804
      141.68800000        2.00881384
       40.33670000        2.60742709
       13.02670000        2.27809981
        4.47003000        0.80118832
sp       2
        5.42522000       -1.04710105        2.80858564
        1.14915000        0.96855007        1.45673455
sp       1
        0.28320500        0.27668510        0.29448707
d       1
        0.80000000        1.92920137

  13
s       2
        5.44717800        0.39715132
        0.82454724        0.55792004
s       1
        0.18319158        0.19956723
p       1
        1.10000000        1.60576114

  14
s       2
        5.44717800        0.39715132
        0.82454724        0.55792004
s       1
        0.18319158        0.19956723
p       1
        1.10000000        1.60576114

  15
s       2
        5.44717800        0.39715132
        0.82454724        0.55792004
s       1
        0.18319158        0.19956723
p       1
        1.10000000        1.60576114

  16
s       2
        5.44717800        0.39715132
        0.82454724        0.55792004
s       1
        0.18319158        0.19956723
p       1
        1.10000000        1.60576114

[MO]
 Sym   = 1A
 Ene   =     -20.553501
 Spin  = ALPHA+BETA
 Occup =  2.0000
    1  -0.1217931E-04
    2  -0.1331487E-03
    3   0.0000000E+00
    4   0.0000000E+00
    5  -0.1738885E-03
    6  -0.4630268E-03
    7   0.0000000E+00
    8   0.0000000E+00
    9  -0.9285403E-03
   10   0.6132195E-04
   11   0.0000000E+00
   12   0.0000000E+00
   13   0.0000000E+00
   14  -0.1863811E-04
   15  -0.7033640E+00
   16  -0.1472876E-01
   17   0.0000000E+00
   18   0.0000000E+00
   19   0.1008076E-02
   20   0.1312747E-02
   21   0.0000000E+00
   22   0.0000000E+00
   23  -0.7372605E-03
   24   0.7431629E-04
   25   0.0000000E+00
   26   0.0000000E+00
   27   0.0000000E+00
   28  -0.4809760E-04
   29   0.0000000E+00
   30   0.2515093E-04
   31  -0.3620713E-04
   32  -0.3620713E-04
   33  -0.2462474E-04
   34  -0.1960257E-03
   35   0.1713781E-03
   36   0.1713781E-03
   37   0.2660187E-03
   38   0.0000000E+00
   39  -0.2488749E-04
   40  -0.2488749E-04
   41   0.0000000E+00
   42  -0.2365788E-04
   43   0.0000000E+00
   44   0.2515093E-04
   45   0.3620713E-04
   46   0.3620713E-04
   47  -0.2462474E-04
   48  -0.1960257E-03
   49  -0.1713781E-03
   50  -0.1713781E-03
   51   0.2660187E-03
   52   0.0000000E+00
   53   0.2488749E-04
   54   0.2488749E-04
   55   0.0000000E+00
   56  -0.2365788E-04
   57   0.8482319E-04
   58   0.1458793E-04
   59   0.0000000E+00
   60   0.0000000E+00
   61   0.3645458E-04
   62  -0.5417152E-04
   63  -0.1959628E-04
   64  -0.1184120E-04
   65  -0.1184120E-04
   66   0.0000000E+00
   67   0.8482319E-04
   68   0.1458793E-04
   69   0.0000000E+00
   70   0.0000000E+00
   71   0.3645458E-04
   72  -0.5417152E-04
   73  -0.1959628E-04
   74   0.1184120E-04
   75   0.1184120E-04
   76   0.0000000E+00
   77   0.1217931E-04
   78   0.1331487E-03
   79   0.0000000E+00
   80   0.0000000E+00
   81  -0.1738885E-03
   82   0.4630268E-03
   83   0.0000000E+00
   84   0.0000000E+00
   85  -0.9285403E-03
   86  -0.6132195E-04
   87   0.0000000E+00
   88   0.0000000E+00
   89   0.0000000E+00
   90  -0.1863811E-04
   91   0.7033640E+00
   92   0.1472876E-01
   93   0.0000000E+00
   94   0.0000000E+00
   95   0.1008076E-02
   96  -0.1312747E-02
   97   0.0000000E+00
   98   0.0000000E+00
   99  -0.7372605E-03
  100  -0.7431629E-04
  101   0.0000000E+00
  102   0.0000000E+00
  103   0.0000000E+00
  104  -0.4809760E-04
  105   0.0000000E+00
  106  -0.2515093E-04
  107   0.3620713E-04
  108  -0.3620713E-04
  109  -0.2462474E-04
  110   0.1960257E-03
  111  -0.1713781E-03
  112   0.1713781E-03
  113   0.2660187E-03
  114   0.0000000E+00
  115  -0.2488749E-04
  116   0.2488749E-04
  117   0.0000000E+00
  118  -0.2365788E-04
  119   0.0000000E+00
  120  -0.2515093E-04
  121  -0.3620713E-04
  122   0.3620713E-04
  123  -0.2462474E-04
  124   0.1960257E-03
  125   0.1713781E-03
  126  -0.1713781E-03
  127   0.2660187E-03
  128   0.0000000E+00
  129   0.2488749E-04
  130  -0.2488749E-04
  131   0.0000000E+00
  132  -0.2365788E-04
  133  -0.8482319E-04
  134  -0.1458793E-04
  135   0.0000000E+00
  136   0.0000000E+00
  137   0.3645458E-04
  138   0.5417152E-04
  139   0.1959628E-04
  140   0.1184120E-04
  141  -0.1184120E-04
  142   0.0000000E+00
  143  -0.8482319E-04
  144  -0.1458793E-04
  145   0.0000000E+00
  146   0.0000000E+00
  147   0.3645458E-04
  148   0.5417152E-04
  149   0.1959628E-04
  150  -0.1184120E-04
  151   0.1184120E-04
  152   0.0000000E+00
 Sym   = 1A
 Ene   =     -20.553500
 Spin  = ALPHA+BETA
 Occup =  2.0000
    1   0.1191824E-04
    2   0.1510415E-03
    3   0.0000000E+00
    4   0.0000000E+00
    5   0.1619785E-03
    6   0.5170541E-03
    7   0.0000000E+00
    8   0.0000000E+00
    9   0.1048962E-02
   10  -0.3132206E-04
   11   0.0000000E+00
   12   0.0000000E+00
   13   0.0000000E+00
   14   0.0000000E+00
   15   0.7033659E+00
   16   0.1473824E-01
   17   0.0000000E+00
   18   0.0000000E+00
   19  -0.1011319E-02
   20  -0.1389948E-02
   21   0.0000000E+00
   22   0.0000000E+00
   23   0.8007062E-03
   24  -0.8806551E-04
   25   0.0000000E+00
   26   0.0000000E+00
   27   0.0000000E+00
   28   0.3793735E-04
   29   0.0000000E+00
   30  -0.2067399E-04
   31   0.1087765E-04
   32   0.1087765E-04
   33   0.1336430E-04
   34   0.1147564E-03
   35  -0.1856068E-03
   36  -0.1856068E-03
   37  -0.2967406E-03
   38   0.0000000E+00
   39   0.0000000E+00
   40   0.0000000E+00
   41   0.0000000E+00
   42   0.0000000E+00
   43   0.0000000E+00
   44  -0.2067399E-04
   45  -0.1087765E-04
   46  -0.1087765E-04
   47   0.1336430E-04
   48   0.1147564E-03
   49   0.1856068E-03
   50   0.1856068E-03
   51  -0.2967406E-03
   52   0.0000000E+00
   53   0.0000000E+00
   54   0.0000000E+00
   55   0.0000000E+00
   56   0.0000000E+00
   57  -0.7873855E-04
   58  -0.1492378E-04
   59   0.0000000E+00
   60   0.0000000E+00
   61  -0.3311744E-04
   62   0.7338520E-04
   63   0.1607680E-03
   64  -0.3163272E-04
   65  -0.3163272E-04
   66  -0.2155484E-04
   67  -0.7873855E-04
   68  -0.1492378E-04
   69   0.0000000E+00
   70   0.0000000E+00
   71  -0.3311744E-04
   72   0.7338520E-04
   73   0.1607680E-03
   74   0.3163272E-04
   75   0.3163272E-04
   76  -0.2155484E-04
   77   0.1191824E-04
   78   0.1510415E-03
   79   0.0000000E+00
   80   0.0000000E+00
   81  -0.1619785E-03
   82   0.5170541E-03
   83   0.0000000E+00
   84   0.0000000E+00
   85  -0.1048962E-02
   86  -0.3132206E-04
   87   0.0000000E+00
   88   0.0000000E+00
   89   0.0000000E+00
   90   0.0000000E+00
   91   0.7033659E+00
   92   0.1473824E-01
   93   0.0000000E+00
   94   0.0000000E+00
   95   0.1011319E-02
   96  -0.1389948E-02
   97   0.0000000E+00
   98   0.0000000E+00
   99  -0.8007062E-03
  100  -0.8806551E-04
  101   0.0000000E+00
  102   0.0000000E+00
  103   0.0000000E+00
  104  -0.3793735E-04
  105   0.0000000E+00
  106  -0.2067399E-04
  107   0.1087765E-04
  108  -0.1087765E-04
  109  -0.1336430E-04
  110   0.1147564E-03
  111  -0.1856068E-03
  112   0.1856068E-03
  113   0.2967406E-03
  114   0.0000000E+00
  115   0.0000000E+00
  116   0.0000000E+00
  117   0.0000000E+00
  118   0.0000000E+00
  119   0.0000000E+00
  120  -0.2067399E-04
  121  -0.1087765E-04
  122   0.1087765E-04
  123  -0.1336430E-04
  124   0.1147564E-03
  125   0.1856068E-03
  126  -0.1856068E-03
  127   0.2967406E-03
  128   0.0000000E+00
  129   0.0000000E+00
  130   0.0000000E+00
  131   0.0000000E+00
  132   0.0000000E+00
  133  -0.7873855E-04
  134  -0.1492378E-04
  135   0.0000000E+00
  136   0.0000000E+00
  137   0.3311744E-04
  138   0.7338520E-04
  139   0.1607680E-03
  140  -0.3163272E-04
  141   0.3163272E-04
  142   0.2155484E-04
  143  -0.7873855E-04
  144  -0.1492378E-04
  145   0.0000000E+00
  146   0.0000000E+00
  147   0.3311744E-04
  148   0.7338520E-04
  149   0.1607680E-03
  150   0.3163272E-04
  151  -0.3163272E-04
  152   0.2155484E-04
 Sym   = 1A
 Ene   =     -15.582216
 Spin  = ALPHA+BETA
 Occup =  2.0000
    1   0.0000000E+00
    2   0.0000000E+00
    3  -0.1360331E-03
    4  -0.1136648E-03
    5   0.0000000E+00
    6   0.0000000E+00
    7  -0.5590000E-03
    8  -0.5958552E-03
    9   0.0000000E+00
   10   0.0000000E+00
   11  -0.3323117E-04
   12   0.0000000E+00
   13   0.0000000E+00
   14   0.0000000E+00
   15   0.0000000E+00
   16   0.0000000E+00
   17  -0.3268768E-04
   18   0.4510235E-04
   19   0.0000000E+00
   20   0.0000000E+00
   21   0.2079555E-03
   22  -0.2186991E-04
   23   0.0000000E+00
   24   0.0000000E+00
   25  -0.4613539E-04
   26  -0.5225467E-04
   27   0.0000000E+00
   28   0.0000000E+00
   29  -0.4974825E+00
   30  -0.1094567E-01
   31   0.1128445E-03
   32   0.9067217E-04
   33  -0.7423548E-04
   34   0.1569216E-02
   35  -0.1271991E-03
   36  -0.6300281E-04
   37   0.2961186E-03
   38   0.1708459E-04
   39   0.0000000E+00
   40   0.0000000E+00
   41   0.0000000E+00
   42   0.3715744E-04
   43   0.4974825E+00
   44   0.1094567E-01
   45   0.1128445E-03
   46   0.9067217E-04
   47   0.7423548E-04
   48  -0.1569216E-02
   49  -0.1271991E-03
   50  -0.6300281E-04
   51  -0.2961186E-03
   52  -0.1708459E-04
   53   0.0000000E+00
   54   0.0000000E+00
   55   0.0000000E+00
   56  -0.3715744E-04
   57  -0.6997484E-04
   58  -0.1647507E-03
   59   0.1192378E-04
   60   0.1064893E-04
   61   0.2298856E-04
   62  -0.1399876E-03
   63  -0.2766386E-03
   64   0.1057551E-04
   65   0.0000000E+00
   66   0.0000000E+00
   67   0.6997484E-04
   68   0.1647507E-03
   69   0.1192378E-04
   70   0.1064893E-04
   71  -0.2298856E-04
   72   0.1399876E-03
   73   0.2766386E-03
   74   0.1057551E-04
   75   0.0000000E+00
   76   0.0000000E+00
   77   0.0000000E+00
   78   0.0000000E+00
   79  -0.1360331E-03
   80   0.1136648E-03
   81   0.0000000E+00
   82   0.0000000E+00
   83  -0.5590000E-03
   84   0.5958552E-03
   85   0.0000000E+00
   86   0.0000000E+00
   87   0.3323117E-04
   88   0.0000000E+00
   89   0.0000000E+00
   90   0.0000000E+00
   91   0.0000000E+00
   92   0.0000000E+00
   93  -0.3268768E-04
   94  -0.4510235E-04
   95   0.0000000E+00
   96   0.0000000E+00
   97   0.2079555E-03
   98   0.2186991E-04
   99   0.0000000E+00
  100   0.0000000E+00
  101   0.4613539E-04
  102  -0.5225467E-04
  103   0.0000000E+00
  104   0.0000000E+00
  105  -0.4974825E+00
  106  -0.1094567E-01
  107   0.1128445E-03
  108  -0.9067217E-04
  109   0.7423548E-04
  110   0.1569216E-02
  111  -0.1271991E-03
  112   0.6300281E-04
  113  -0.2961186E-03
  114   0.1708459E-04
  115   0.0000000E+00
  116   0.0000000E+00
  117   0.0000000E+00
  118  -0.3715744E-04
  119   0.4974825E+00
  120   0.1094567E-01
  121   0.1128445E-03
  122  -0.9067217E-04
  123  -0.7423548E-04
  124  -0.1569216E-02
  125  -0.1271991E-03
  126   0.6300281E-04
  127   0.2961186E-03
  128  -0.1708459E-04
  129   0.0000000E+00
  130   0.0000000E+00
  131   0.0000000E+00
  132   0.3715744E-04
  133  -0.6997484E-04
  134  -0.1647507E-03
  135   0.1192378E-04
  136  -0.1064893E-04
  137  -0.2298856E-04
  138  -0.1399876E-03
  139  -0.2766386E-03
  140   0.1057551E-04
  141   0.0000000E+00
  142   0.0000000E+00
  143   0.6997484E-04
  144   0.1647507E-03
  145   0.1192378E-04
  146  -0.1064893E-04
  147   0.2298856E-04
  148   0.1399876E-03
  149   0.2766386E-03
  150   0.1057551E-04
  151   0.0000000E+00
  152   0.0000000E+00
 Sym   = 1A
 Ene   =     -15.582216
 Spin  = ALPHA+BETA
 Occup =  2.0000
    1   0.0000000E+00
    2   0.0000000E+00
    3  -0.1136648E-03
    4  -0.1360331E-03
    5   0.0000000E+00
    6   0.0000000E+00
    7  -0.5958552E-03
    8  -0.5590000E-03
    9   0.0000000E+00
   10   0.0000000E+00
   11   0.0000000E+00
   12  -0.3323117E-04
   13   0.0000000E+00
   14   0.0000000E+00
   15   0.0000000E+00
   16   0.0000000E+00
   17   0.4510235E-04
   18  -0.3268768E-04
   19   0.0000000E+00
   20   0.0000000E+00
   21  -0.2186991E-04
   22   0.2079555E-03
   23   0.0000000E+00
   24   0.0000000E+00
   25  -0.5225467E-04
   26  -0.4613539E-04
   27   0.0000000E+00
   28   0.0000000E+00
   29  -0.4974825E+00
   30  -0.1094567E-01
   31   0.9067217E-04
   32   0.1128445E-03
   33  -0.7423548E-04
   34   0.1569216E-02
   35  -0.6300281E-04
   36  -0.1271991E-03
   37   0.2961186E-03
   38   0.1708459E-04
   39   0.0000000E+00
   40   0.0000000E+00
   41   0.0000000E+00
   42   0.3715744E-04
   43   0.4974825E+00
   44   0.1094567E-01
   45   0.9067217E-04
   46   0.1128445E-03
   47   0.7423548E-04
   48  -0.1569216E-02
   49  -0.6300281E-04
   50  -0.1271991E-03
   51  -0.2961186E-03
   52  -0.1708459E-04
   53   0.0000000E+00
   54   0.0000000E+00
   55   0.0000000E+00
   56  -0.3715744E-04
   57  -0.6997484E-04
   58  -0.1647507E-03
   59   0.1064893E-04
   60   0.1192378E-04
   61   0.2298856E-04
   62  -0.1399876E-03
   63  -0.2766386E-03
   64   0.0000000E+00
   65   0.1057551E-04
   66   0.0000000E+00
   67   0.6997484E-04
   68   0.1647507E-03
   69   0.1064893E-04
   70   0.1192378E-04
   71  -0.2298856E-04
   72   0.1399876E-03
   73   0.2766386E-03
   74   0.0000000E+00
   75   0.1057551E-04
   76   0.0000000E+00
   77   0.0000000E+00
   78   0.0000000E+00
   79   0.1136648E-03
   80  -0.1360331E-03
   81   0.0000000E+00
   82   0.0000000E+00
   83   0.5958552E-03
   84  -0.5590000E-03
   85   0.0000000E+00
   86   0.0000000E+00
   87   0.0000000E+00
   88   0.3323117E-04
   89   0.0000000E+00
   90   0.0000000E+00
   91   0.0000000E+00
   92   0.0000000E+00
   93  -0.4510235E-04
   94  -0.3268768E-04
   95   0.0000000E+00
   96   0.0000000E+00
   97   0.2186991E-04
   98   0.2079555E-03
   99   0.0000000E+00
  100   0.0000000E+00
  101  -0.5225467E-04
  102   0.4613539E-04
  103   0.0000000E+00
  104   0.0000000E+00
  105   0.4974825E+00
  106   0.1094567E-01
  107  -0.9067217E-04
  108   0.1128445E-03
  109  -0.7423548E-04
  110  -0.1569216E-02
  111   0.6300281E-04
  112  -0.1271991E-03
  113   0.2961186E-03
  114  -0.1708459E-04
  115   0.0000000E+00
  116   0.0000000E+00
  117   0.0000000E+00
  118   0.3715744E-04
  119  -0.4974825E+00
  120  -0.1094567E-01
  121  -0.9067217E-04
  122   0.1128445E-03
  123   0.7423548E-04
  124   0.1569216E-02
  125   0.6300281E-04
  126  -0.1271991E-03
  127  -0.2961186E-03
  128   0.1708459E-04
  129   0.0000000E+00
  130   0.0000000E+00
  131   0.0000000E+00
  132  -0.3715744E-04
  133   0.6997484E-04
  134   0.1647507E-03
  135  -0.1064893E-04
  136   0.1192378E-04
  137   0.2298856E-04
  138   0.1399876E-03
  139   0.2766386E-03
  140   0.0000000E+00
  141   0.1057551E-04
  142   0.0000000E+00
  143  -0.6997484E-04
  144  -0.1647507E-03
  145  -0.1064893E-04
  146   0.1192378E-04
  147  -0.2298856E-04
  148  -0.1399876E-03
  149  -0.2766386E-03
  150   0.0000000E+00
  151   0.1057551E-04
  152   0.0000000E+00
 Sym   = 1A
 Ene   =     -15.582210
 Spin  = ALPHA+BETA
 Occup =  2.0000
    1   0.3943536E-04
    2   0.1076959E-03
    3   0.0000000E+00
    4   0.0000000E+00
    5  -0.3737040E-04
    6   0.1033140E-02
    7   0.0000000E+00
    8   0.0000000E+00
    9  -0.2845232E-03
   10   0.4788951E-04
   11   0.0000000E+00
   12   0.0000000E+00
   13   0.0000000E+00
   14  -0.3735827E-04
   15   0.0000000E+00
   16  -0.6001538E-04
   17   0.0000000E+00
   18   0.0000000E+00
   19  -0.5384853E-04
   20   0.1981017E-04
   21   0.0000000E+00
   22   0.0000000E+00
   23   0.3107621E-03
   24  -0.5284914E-04
   25   0.0000000E+00
   26   0.0000000E+00
   27   0.0000000E+00
   28   0.0000000E+00
   29   0.4974831E+00
   30   0.1092245E-01
   31  -0.8129362E-04
   32  -0.8129362E-04
   33   0.3418849E-04
   34  -0.1491750E-02
   35   0.1399691E-03
   36   0.1399691E-03
   37   0.0000000E+00
   38   0.1049543E-04
   39   0.0000000E+00
   40   0.0000000E+00
   41   0.0000000E+00
   42  -0.1636147E-04
   43   0.4974831E+00
   44   0.1092245E-01
   45   0.8129362E-04
   46   0.8129362E-04
   47   0.3418849E-04
   48  -0.1491750E-02
   49  -0.1399691E-03
   50  -0.1399691E-03
   51   0.0000000E+00
   52   0.1049543E-04
   53   0.0000000E+00
   54   0.0000000E+00
   55   0.0000000E+00
   56  -0.1636147E-04
   57   0.1147539E-03
   58   0.2396595E-03
   59   0.0000000E+00
   60   0.0000000E+00
   61  -0.1575131E-04
   62   0.7135904E-04
   63   0.2530999E-03
   64   0.0000000E+00
   65   0.0000000E+00
   66   0.1356256E-04
   67   0.1147539E-03
   68   0.2396595E-03
   69   0.0000000E+00
   70   0.0000000E+00
   71  -0.1575131E-04
   72   0.7135904E-04
   73   0.2530999E-03
   74   0.0000000E+00
   75   0.0000000E+00
   76   0.1356256E-04
   77   0.3943536E-04
   78   0.1076959E-03
   79   0.0000000E+00
   80   0.0000000E+00
   81   0.3737040E-04
   82   0.1033140E-02
   83   0.0000000E+00
   84   0.0000000E+00
   85   0.2845232E-03
   86   0.4788951E-04
   87   0.0000000E+00
   88   0.0000000E+00
   89   0.0000000E+00
   90   0.3735827E-04
   91   0.0000000E+00
   92  -0.6001538E-04
   93   0.0000000E+00
   94   0.0000000E+00
   95   0.5384853E-04
   96   0.1981017E-04
   97   0.0000000E+00
   98   0.0000000E+00
   99  -0.3107621E-03
  100  -0.5284914E-04
  101   0.0000000E+00
  102   0.0000000E+00
  103   0.0000000E+00
  104   0.0000000E+00
  105   0.4974831E+00
  106   0.1092245E-01
  107  -0.8129362E-04
  108   0.8129362E-04
  109  -0.3418849E-04
  110  -0.1491750E-02
  111   0.1399691E-03
  112  -0.1399691E-03
  113   0.0000000E+00
  114   0.1049543E-04
  115   0.0000000E+00
  116   0.0000000E+00
  117   0.0000000E+00
  118   0.1636147E-04
  119   0.4974831E+00
  120   0.1092245E-01
  121   0.8129362E-04
  122  -0.8129362E-04
  123  -0.3418849E-04
  124  -0.1491750E-02
  125  -0.1399691E-03
  126   0.1399691E-03
  127   0.0000000E+00
  128   0.1049543E-04
  129   0.0000000E+00
  130   0.0000000E+00
  131   0.0000000E+00
  132   0.1636147E-04
  133   0.1147539E-03
  134   0.2396595E-03
  135   0.0000000E+00
  136   0.0000000E+00
  137   0.1575131E-04
  138   0.7135904E-04
  139   0.2530999E-03
  140   0.0000000E+00
  141   0.0000000E+00
  142  -0.1356256E-04
  143   0.1147539E-03
  144   0.2396595E-03
  145   0.0000000E+00
  146   0.0000000E+00
  147   0.1575131E-04
  148   0.7135904E-04
  149   0.2530999E-03
  150   0.0000000E+00
  151   0.0000000E+00
  152  -0.1356256E-04
 Sym   = 1A
 Ene   =     -15.582208
 Spin  = ALPHA+BETA
 Occup =  2.0000
    1  -0.3513002E-04
    2  -0.6715278E-04
    3   0.0000000E+00
    4   0.0000000E+00
    5   0.6067824E-04
    6  -0.1210731E-02
    7   0.0000000E+00
    8   0.0000000E+00
    9   0.7540434E-03
   10   0.0000000E+00
   11   0.0000000E+00
   12   0.0000000E+00
   13   0.0000000E+00
   14   0.0000000E+00
   15   0.0000000E+00
   16   0.2850114E-04
   17   0.0000000E+00
   18   0.0000000E+00
   19   0.1142346E-04
   20  -0.1392845E-03
   21   0.0000000E+00
   22   0.0000000E+00
   23  -0.8556255E-04
   24   0.0000000E+00
   25   0.0000000E+00
   26   0.0000000E+00
   27   0.0000000E+00
   28  -0.5181406E-04
   29  -0.4974826E+00
   30  -0.1090503E-01
   31   0.9411546E-04
   32   0.9411546E-04
   33  -0.3860002E-04
   34   0.1597292E-02
   35  -0.2996498E-03
   36  -0.2996498E-03
   37   0.1980666E-04
   38  -0.3823606E-04
   39  -0.2222702E-04
   40  -0.2222702E-04
   41   0.0000000E+00
   42   0.2054023E-04
   43  -0.4974826E+00
   44  -0.1090503E-01
   45  -0.9411546E-04
   46  -0.9411546E-04
   47  -0.3860002E-04
   48   0.1597292E-02
   49   0.2996498E-03
   50   0.2996498E-03
   51   0.1980666E-04
   52  -0.3823606E-04
   53   0.2222702E-04
   54   0.2222702E-04
   55   0.0000000E+00
   56   0.2054023E-04
   57  -0.7790510E-04
   58  -0.2772239E-03
   59   0.0000000E+00
   60   0.0000000E+00
   61   0.3008280E-04
   62  -0.3547450E-04
   63  -0.1955621E-03
   64  -0.1908282E-04
   65  -0.1908282E-04
   66  -0.2800435E-04
   67  -0.7790510E-04
   68  -0.2772239E-03
   69   0.0000000E+00
   70   0.0000000E+00
   71   0.3008280E-04
   72  -0.3547450E-04
   73  -0.1955621E-03
   74   0.1908282E-04
   75   0.1908282E-04
   76  -0.2800435E-04
   77   0.3513002E-04
   78   0.6715278E-04
   79   0.0000000E+00
   80   0.0000000E+00
   81   0.6067824E-04
   82   0.1210731E-02
   83   0.0000000E+00
   84   0.0000000E+00
   85   0.7540434E-03
   86   0.0000000E+00
   87   0.0000000E+00
   88   0.0000000E+00
   89   0.0000000E+00
   90   0.0000000E+00
   91   0.0000000E+00
   92  -0.2850114E-04
   93   0.0000000E+00
   94   0.0000000E+00
   95   0.1142346E-04
   96   0.1392845E-03
   97   0.0000000E+00
   98   0.0000000E+00
   99  -0.8556255E-04
  100   0.0000000E+00
  101   0.0000000E+00
  102   0.0000000E+00
  103   0.0000000E+00
  104  -0.5181406E-04
  105   0.4974826E+00
  106   0.1090503E-01
  107  -0.9411546E-04
  108   0.9411546E-04
  109  -0.3860002E-04
  110  -0.1597292E-02
  111   0.2996498E-03
  112  -0.2996498E-03
  113   0.1980666E-04
  114   0.3823606E-04
  115  -0.2222702E-04
  116   0.2222702E-04
  117   0.0000000E+00
  118   0.2054023E-04
  119   0.4974826E+00
  120   0.1090503E-01
  121   0.9411546E-04
  122  -0.9411546E-04
  123  -0.3860002E-04
  124  -0.1597292E-02
  125  -0.2996498E-03
  126   0.2996498E-03
  127   0.1980666E-04
  128   0.3823606E-04
  129   0.2222702E-04
  130  -0.2222702E-04
  131   0.0000000E+00
  132   0.2054023E-04
  133   0.7790510E-04
  134   0.2772239E-03
  135   0.0000000E+00
  136   0.0000000E+00
  137   0.3008280E-04
  138   0.3547450E-04
  139   0.1955621E-03
  140   0.1908282E-04
  141  -0.1908282E-04
  142  -0.2800435E-04
  143   0.7790510E-04
  144   0.2772239E-03
  145   0.0000000E+00
  146   0.0000000E+00
  147   0.3008280E-04
  148   0.3547450E-04
  149   0.1955621E-03
  150  -0.1908282E-04
  151   0.1908282E-04
  152  -0.2800435E-04
 Sym   = 1A
 Ene   =     -11.394698
 Spin  = ALPHA+BETA
 Occup =  2.0000
    1   0.7038772E+00
    2   0.1483277E-01
    3   0.0000000E+00
    4   0.0000000E+00
    5   0.0000000E+00
    6  -0.1855722E-02
    7   0.0000000E+00
    8   0.0000000E+00
    9   0.4482849E-03
   10   0.4052792E-03
   11   0.0000000E+00
   12   0.0000000E+00
   13   0.0000000E+00
   14   0.3327170E-03
   15  -0.1796241E-03
   16   0.1514033E-03
   17   0.0000000E+00
   18   0.0000000E+00
   19  -0.2975204E-03
   20  -0.3957782E-04
   21   0.0000000E+00
   22   0.0000000E+00
   23   0.3417610E-03
   24  -0.7079173E-04
   25   0.0000000E+00
   26   0.0000000E+00
   27   0.0000000E+00
   28  -0.2323638E-04
   29  -0.1842249E-03
   30   0.1247768E-03
   31  -0.1137383E-03
   32  -0.1137383E-03
   33   0.8226987E-04
   34   0.2138277E-03
   35  -0.1925565E-04
   36  -0.1925565E-04
   37   0.2496097E-03
   38  -0.8863395E-04
   39   0.0000000E+00
   40   0.0000000E+00
   41   0.0000000E+00
   42  -0.9226147E-04
   43  -0.1842249E-03
   44   0.1247768E-03
   45   0.1137383E-03
   46   0.1137383E-03
   47   0.8226987E-04
   48   0.2138277E-03
   49   0.1925565E-04
   50   0.1925565E-04
   51   0.2496097E-03
   52  -0.8863395E-04
   53   0.0000000E+00
   54   0.0000000E+00
   55   0.0000000E+00
   56  -0.9226147E-04
   57  -0.2258730E-04
   58   0.4642882E-03
   59  -0.4076386E-04
   60  -0.4076386E-04
   61   0.1120486E-03
   62   0.4418919E-04
   63  -0.2000718E-03
   64  -0.1669332E-04
   65  -0.1669332E-04
   66   0.1830765E-04
   67  -0.2258730E-04
   68   0.4642882E-03
   69   0.4076386E-04
   70   0.4076386E-04
   71   0.1120486E-03
   72   0.4418919E-04
   73  -0.2000718E-03
   74   0.1669332E-04
   75   0.1669332E-04
   76   0.1830765E-04
   77   0.7038772E+00
   78   0.1483277E-01
   79   0.0000000E+00
   80   0.0000000E+00
   81   0.0000000E+00
   82  -0.1855722E-02
   83   0.0000000E+00
   84   0.0000000E+00
   85  -0.4482849E-03
   86   0.4052792E-03
   87   0.0000000E+00
   88   0.0000000E+00
   89   0.0000000E+00
   90  -0.3327170E-03
   91  -0.1796241E-03
   92   0.1514033E-03
   93   0.0000000E+00
   94   0.0000000E+00
   95   0.2975204E-03
   96  -0.3957782E-04
   97   0.0000000E+00
   98   0.0000000E+00
   99  -0.3417610E-03
  100  -0.7079173E-04
  101   0.0000000E+00
  102   0.0000000E+00
  103   0.0000000E+00
  104   0.2323638E-04
  105  -0.1842249E-03
  106   0.1247768E-03
  107  -0.1137383E-03
  108   0.1137383E-03
  109  -0.8226987E-04
  110   0.2138277E-03
  111  -0.1925565E-04
  112   0.1925565E-04
  113  -0.2496097E-03
  114  -0.8863395E-04
  115   0.0000000E+00
  116   0.0000000E+00
  117   0.0000000E+00