[Molden Format]
[Atoms] (Angs)
C      1     6      0.0000000000E+00    0.0000000000E+00    0.0000000000E+00
O      2     8      0.0000000000E+00    0.0000000000E+00    0.1261401000E+01
N      3     7      0.0000000000E+00    0.1148246660E+01   -0.6997900000E+00
N      4     7      0.0000000000E+00   -0.1148246660E+01   -0.6997900000E+00
H      5     1      0.0000000000E+00    0.2026549650E+01   -0.2028170000E+00
H      6     1      0.0000000000E+00   -0.2026549650E+01   -0.2028170000E+00
H      7     1      0.0000000000E+00    0.1134080483E+01   -0.1704975000E+01
H      8     1      0.0000000000E+00   -0.1134080483E+01   -0.1704975000E+01
[5D]
[7F]
[GTO]
   1
s       6
     3047.52000000        0.53375539
      456.42400000        0.98927438
      103.65300000        1.59189144
       29.22580000        2.06423373
        9.34863000        1.78503360
        3.18904000        0.61701885
sp       2
        3.66498000       -0.74738434        1.70917758
        0.77054500        0.71266103        0.88562206
sp       1
        0.19585700        0.20982847        0.18572226
d       1
        0.80000000        1.92920137

   2
s       6
     5472.27000000        0.83080904
      817.80600000        1.53730975
      186.44600000        2.46782617
       53.02300000        3.21222537
       17.18000000        2.80501243
        5.91196000        0.98404774
sp       2
        7.40294000       -1.29369515        4.25723044
        1.57620000        1.22471212        2.14975723
sp       1
        0.37368400        0.34063437        0.41645753
d       1
        0.80000000        1.92920137

   3
s       6
     4150.11000000        0.68006065
      620.08400000        1.25443804
      141.68800000        2.00881384
       40.33670000        2.60742709
       13.02670000        2.27809981
        4.47003000        0.80118832
sp       2
        5.42522000       -1.04710105        2.80858564
        1.14915000        0.96855007        1.45673455
sp       1
        0.28320500        0.27668510        0.29448707
d       1
        0.80000000        1.92920137

   4
s       6
     4150.11000000        0.68006065
      620.08400000        1.25443804
      141.68800000        2.00881384
       40.33670000        2.60742709
       13.02670000        2.27809981
        4.47003000        0.80118832
sp       2
        5.42522000       -1.04710105        2.80858564
        1.14915000        0.96855007        1.45673455
sp       1
        0.28320500        0.27668510        0.29448707
d       1
        0.80000000        1.92920137

   5
s       2
        5.44717800        0.39715132
        0.82454724        0.55792004
s       1
        0.18319158        0.19956723
p       1
        1.10000000        1.60576114

   6
s       2
        5.44717800        0.39715132
        0.82454724        0.55792004
s       1
        0.18319158        0.19956723
p       1
        1.10000000        1.60576114

   7
s       2
        5.44717800        0.39715132
        0.82454724        0.55792004
s       1
        0.18319158        0.19956723
p       1
        1.10000000        1.60576114

   8
s       2
        5.44717800        0.39715132
        0.82454724        0.55792004
s       1
        0.18319158        0.19956723
p       1
        1.10000000        1.60576114

[MO]
 Sym   = 1A
 Ene   =     -20.483862
 Spin  = ALPHA+BETA
 Occup =  2.0000
    1   0.1837922E-04
    2   0.1931222E-03
    3   0.0000000E+00
    4   0.0000000E+00
    5   0.2311624E-03
    6   0.7243022E-03
    7   0.0000000E+00
    8   0.0000000E+00
    9   0.1033429E-02
   10  -0.1103448E-03
   11   0.0000000E+00
   12   0.0000000E+00
   13  -0.2119327E-04
   14   0.0000000E+00
   15   0.9947319E+00
   16   0.2069148E-01
   17   0.0000000E+00
   18   0.0000000E+00
   19  -0.1609019E-02
   20  -0.1680239E-02
   21   0.0000000E+00
   22   0.0000000E+00
   23   0.1017156E-02
   24  -0.9191268E-04
   25   0.0000000E+00
   26   0.0000000E+00
   27  -0.8814975E-04
   28   0.0000000E+00
   29   0.0000000E+00
   30  -0.2402081E-04
   31   0.0000000E+00
   32   0.3615724E-04
   33   0.0000000E+00
   34   0.1226132E-03
   35   0.0000000E+00
   36  -0.1930217E-03
   37  -0.2237425E-03
   38  -0.3057038E-04
   39   0.0000000E+00
   40   0.5818490E-04
   41  -0.3550163E-04
   42   0.0000000E+00
   43   0.0000000E+00
   44  -0.2402081E-04
   45   0.0000000E+00
   46  -0.3615724E-04
   47   0.0000000E+00
   48   0.1226132E-03
   49   0.0000000E+00
   50   0.1930217E-03
   51  -0.2237425E-03
   52  -0.3057038E-04
   53   0.0000000E+00
   54  -0.5818490E-04
   55  -0.3550163E-04
   56   0.0000000E+00
   57   0.2573526E-04
   58   0.4813742E-04
   59   0.0000000E+00
   60   0.0000000E+00
   61   0.0000000E+00
   62   0.2573526E-04
   63   0.4813742E-04
   64   0.0000000E+00
   65   0.0000000E+00
   66   0.0000000E+00
   67  -0.6386526E-04
   68   0.0000000E+00
   69   0.0000000E+00
   70   0.1043774E-04
   71   0.0000000E+00
   72  -0.6386526E-04
   73   0.0000000E+00
   74   0.0000000E+00
   75  -0.1043774E-04
   76   0.0000000E+00
 Sym   = 1A
 Ene   =     -15.588425
 Spin  = ALPHA+BETA
 Occup =  2.0000
    1   0.0000000E+00
    2   0.0000000E+00
    3   0.0000000E+00
    4  -0.2511543E-03
    5   0.0000000E+00
    6   0.0000000E+00
    7   0.0000000E+00
    8  -0.1292142E-02
    9   0.0000000E+00
   10   0.0000000E+00
   11   0.0000000E+00
   12   0.1820620E-04
   13   0.0000000E+00
   14   0.0000000E+00
   15   0.0000000E+00
   16   0.0000000E+00
   17   0.0000000E+00
   18  -0.2511984E-04
   19   0.0000000E+00
   20   0.0000000E+00
   21   0.0000000E+00
   22   0.3029307E-03
   23   0.0000000E+00
   24   0.0000000E+00
   25   0.0000000E+00
   26  -0.8012151E-04
   27   0.0000000E+00
   28   0.0000000E+00
   29  -0.7035412E+00
   30  -0.1545323E-01
   31   0.0000000E+00
   32   0.1005257E-03
   33   0.1351284E-04
   34   0.2102639E-02
   35   0.0000000E+00
   36  -0.2926480E-03
   37   0.3844176E-03
   38   0.3060327E-04
   39   0.0000000E+00
   40  -0.2314190E-04
   41  -0.6111107E-04
   42   0.0000000E+00
   43   0.7035412E+00
   44   0.1545323E-01
   45   0.0000000E+00
   46   0.1005257E-03
   47  -0.1351284E-04
   48  -0.2102639E-02
   49   0.0000000E+00
   50  -0.2926480E-03
   51  -0.3844176E-03
   52  -0.3060327E-04
   53   0.0000000E+00
   54  -0.2314190E-04
   55   0.6111107E-04
   56   0.0000000E+00
   57  -0.1984970E-03
   58  -0.1678110E-03
   59   0.0000000E+00
   60  -0.3062811E-04
   61  -0.3175552E-04
   62   0.1984970E-03
   63   0.1678110E-03
   64   0.0000000E+00
   65  -0.3062811E-04
   66   0.3175552E-04
   67  -0.9749802E-04
   68  -0.1924027E-03
   69   0.0000000E+00
   70   0.2995053E-04
   71   0.7870458E-04
   72   0.9749802E-04
   73   0.1924027E-03
   74   0.0000000E+00
   75   0.2995053E-04
   76  -0.7870458E-04
 Sym   = 1A
 Ene   =     -15.588418
 Spin  = ALPHA+BETA
 Occup =  2.0000
    1   0.4360527E-04
    2   0.6384425E-04
    3   0.0000000E+00
    4   0.0000000E+00
    5  -0.1397062E-03
    6   0.1461088E-02
    7   0.0000000E+00
    8   0.0000000E+00
    9  -0.7952101E-03
   10   0.0000000E+00
   11   0.0000000E+00
   12   0.0000000E+00
   13   0.0000000E+00
   14   0.0000000E+00
   15   0.0000000E+00
   16  -0.3259912E-04
   17   0.0000000E+00
   18   0.0000000E+00
   19   0.1696522E-04
   20   0.1158846E-03
   21   0.0000000E+00
   22   0.0000000E+00
   23   0.1007916E-04
   24   0.0000000E+00
   25   0.0000000E+00
   26   0.0000000E+00
   27  -0.2774808E-04
   28   0.0000000E+00
   29   0.7035369E+00
   30   0.1537569E-01
   31   0.0000000E+00
   32  -0.6622137E-04
   33  -0.5706869E-04
   34  -0.1920908E-02
   35   0.0000000E+00
   36   0.4550367E-03
   37  -0.4322387E-04
   38   0.3600707E-04
   39   0.0000000E+00
   40   0.4462247E-04
   41   0.3278942E-04
   42   0.0000000E+00
   43   0.7035369E+00
   44   0.1537569E-01
   45   0.0000000E+00
   46   0.6622137E-04
   47  -0.5706869E-04
   48  -0.1920908E-02
   49   0.0000000E+00
   50  -0.4550367E-03
   51  -0.4322387E-04
   52   0.3600707E-04
   53   0.0000000E+00
   54  -0.4462247E-04
   55   0.3278942E-04
   56   0.0000000E+00
   57   0.6847488E-04
   58   0.1912387E-03
   59   0.0000000E+00
   60   0.5827072E-04
   61   0.5446315E-04
   62   0.6847488E-04
   63   0.1912387E-03
   64   0.0000000E+00
   65  -0.5827072E-04
   66   0.5446315E-04
   67   0.1282952E-03
   68   0.2049673E-03
   69   0.0000000E+00
   70  -0.1190037E-04
   71  -0.9696448E-04
   72   0.1282952E-03
   73   0.2049673E-03
   74   0.0000000E+00
   75   0.1190037E-04
   76  -0.9696448E-04
 Sym   = 1A
 Ene   =     -11.363006
 Spin  = ALPHA+BETA
 Occup =  2.0000
    1   0.9953940E+00
    2   0.2075278E-01
    3   0.0000000E+00
    4   0.0000000E+00
    5  -0.8236971E-03
    6  -0.1632732E-02
    7   0.0000000E+00
    8   0.0000000E+00
    9   0.2902408E-03
   10   0.4120601E-03
   11   0.0000000E+00
   12   0.0000000E+00
   13  -0.6309729E-03
   14   0.0000000E+00
   15  -0.2761378E-03
   16   0.1288472E-03
   17   0.0000000E+00
   18   0.0000000E+00
   19  -0.3758904E-03
   20   0.2055295E-03
   21   0.0000000E+00
   22   0.0000000E+00
   23  -0.1018926E-04
   24   0.1080109E-03
   25   0.0000000E+00
   26   0.0000000E+00
   27   0.7880444E-04
   28   0.0000000E+00
   29  -0.2337245E-03
   30   0.2759528E-03
   31   0.0000000E+00
   32  -0.2231466E-03
   33   0.1408392E-03
   34  -0.1703324E-03
   35   0.0000000E+00
   36   0.2229611E-03
   37  -0.2726426E-03
   38  -0.2754021E-04
   39   0.0000000E+00
   40   0.9418357E-04
   41   0.2564040E-03
   42   0.0000000E+00
   43  -0.2337245E-03
   44   0.2759528E-03
   45   0.0000000E+00
   46   0.2231466E-03
   47   0.1408392E-03
   48  -0.1703324E-03
   49   0.0000000E+00
   50  -0.2229611E-03
   51  -0.2726426E-03
   52  -0.2754021E-04
   53   0.0000000E+00
   54  -0.9418357E-04
   55   0.2564040E-03
   56   0.0000000E+00
   57   0.4597551E-04
   58   0.1037721E-03
   59   0.0000000E+00
   60  -0.1176099E-03
   61   0.1830430E-04
   62   0.4597551E-04
   63   0.1037721E-03
   64   0.0000000E+00
   65   0.1176099E-03
   66   0.1830430E-04
   67  -0.4649680E-04
   68   0.6955517E-04
   69   0.0000000E+00
   70  -0.8781086E-04
   71   0.5557071E-04
   72  -0.4649680E-04
   73   0.6955517E-04
   74   0.0000000E+00
   75   0.8781086E-04
   76   0.5557071E-04
 Sym   = 1A
 Ene   =      -1.340589
 Spin  = ALPHA+BETA
 Occup =  2.0000
    1  -0.1444425E+00
    2   0.1719512E+00
    3   0.0000000E+00
    4   0.0000000E+00
    5   0.4496771E-01
    6   0.9655034E-01
    7   0.0000000E+00
    8   0.0000000E+00
    9  -0.1498668E-01
   10   0.1317676E-01
   11   0.0000000E+00
   12   0.0000000E+00
   13  -0.6218757E-02
   14   0.0000000E+00
   15  -0.1583041E+00
   16   0.1586955E+00
   17   0.0000000E+00
   18   0.0000000E+00
   19  -0.8179812E-01
   20   0.4815463E+00
   21   0.0000000E+00
   22   0.0000000E+00
   23  -0.1012768E+00
   24   0.2567417E-01
   25   0.0000000E+00
   26   0.0000000E+00
   27   0.7297866E-03
   28   0.0000000E+00
   29  -0.8658122E-01
   30   0.8690106E-01
   31   0.0000000E+00
   32  -0.3994986E-01
   33   0.2478560E-01
   34   0.2318865E+00
   35   0.0000000E+00
   36  -0.4164249E-01
   37   0.3559191E-01
   38   0.1052622E-03
   39   0.0000000E+00
   40  -0.1541961E-01
   41  -0.1097911E-01
   42   0.0000000E+00
   43  -0.8658122E-01
   44   0.8690106E-01
   45   0.0000000E+00
   46   0.3994986E-01
   47   0.2478560E-01
   48   0.2318865E+00
   49   0.0000000E+00
   50   0.4164249E-01
   51   0.3559191E-01
   52   0.1052622E-03
   53   0.0000000E+00
   54   0.1541961E-01
   55  -0.1097911E-01
   56   0.0000000E+00
   57   0.3389234E-01
   58   0.7365780E-02
   59   0.0000000E+00
   60  -0.7282283E-02
   61  -0.3939996E-02
   62   0.3389234E-01
   63   0.7365780E-02
   64   0.0000000E+00
   65   0.7282283E-02
   66  -0.3939996E-02
   67   0.3634591E-01
   68   0.8782034E-02
   69   0.0000000E+00
   70  -0.7974593E-03
   71   0.7601553E-02
   72   0.3634591E-01
   73   0.8782034E-02
   74   0.0000000E+00
   75   0.7974593E-03
   76   0.7601553E-02
 Sym   = 1A
 Ene   =      -1.206980
 Spin  = ALPHA+BETA
 Occup =  2.0000
    1   0.1965784E-01
    2  -0.3172567E-01
    3   0.0000000E+00
    4   0.0000000E+00
    5   0.1923506E+00
    6   0.2082032E-01
    7   0.0000000E+00
    8   0.0000000E+00
    9   0.1950843E-02
   10   0.2076662E-01
   11   0.0000000E+00
   12   0.0000000E+00
   13   0.1462549E-01
   14   0.0000000E+00
   15  -0.1540750E+00
   16   0.1615568E+00
   17   0.0000000E+00
   18   0.0000000E+00
   19  -0.4883977E-01
   20   0.4700177E+00
   21   0.0000000E+00
   22   0.0000000E+00
   23  -0.5156668E-01
   24   0.8335295E-02
   25   0.0000000E+00
   26   0.0000000E+00
   27  -0.1242556E-02
   28   0.0000000E+00
   29   0.1167722E+00
   30  -0.1207037E+00
   31   0.0000000E+00
   32   0.2839221E-01
   33   0.7145736E-02
   34  -0.3363777E+00
   35   0.0000000E+00
   36   0.4728746E-01
   37   0.8876921E-02
   38   0.6591785E-02
   39   0.0000000E+00
   40   0.1505286E-02
   41   0.1106989E-01
   42   0.0000000E+00
   43   0.1167722E+00
   44  -0.1207037E+00
   45   0.0000000E+00
   46  -0.2839221E-01
   47   0.7145736E-02
   48  -0.3363777E+00
   49   0.0000000E+00
   50  -0.4728746E-01
   51   0.8876921E-02
   52   0.6591785E-02
   53   0.0000000E+00
   54  -0.1505286E-02
   55   0.1106989E-01
   56   0.0000000E+00
   57  -0.5164025E-01
   58  -0.1601019E-01
   59   0.0000000E+00
   60   0.7787840E-02
   61   0.4827967E-02
   62  -0.5164025E-01
   63  -0.1601019E-01
   64   0.0000000E+00
   65  -0.7787840E-02
   66   0.4827967E-02
   67  -0.6776120E-01
   68  -0.2110309E-01
   69   0.0000000E+00
   70  -0.7055262E-03
   71  -0.1409731E-01
   72  -0.6776120E-01
   73  -0.2110309E-01
   74   0.0000000E+00
   75   0.7055262E-03
   76  -0.1409731E-01
 Sym   = 1A
 Ene   =      -1.168791
 Spin  = ALPHA+BETA
 Occup =  2.0000
    1   0.0000000E+00
    2   0.0000000E+00
    3   0.0000000E+00
    4   0.1606824E+00
    5   0.0000000E+00
    6   0.0000000E+00
    7   0.0000000E+00
    8  -0.3559851E-01
    9   0.0000000E+00
   10   0.0000000E+00
   11   0.0000000E+00
   12  -0.2616787E-01
   13   0.0000000E+00
   14   0.0000000E+00
   15   0.0000000E+00
   16   0.0000000E+00
   17   0.0000000E+00
   18   0.2129590E-01
   19   0.0000000E+00
   20   0.0000000E+00
   21   0.0000000E+00
   22   0.3430666E-01
   23   0.0000000E+00
   24   0.0000000E+00
   25   0.0000000E+00
   26  -0.1002825E-01
   27   0.0000000E+00
   28   0.0000000E+00
   29  -0.1584391E+00
   30   0.1633009E+00
   31   0.0000000E+00
   32  -0.2555387E-02
   33   0.1193759E-01
   34   0.4655541E+00
   35   0.0000000E+00
   36  -0.2760674E-01
   37   0.3362416E-01
   38   0.4149513E-02
   39   0.0000000E+00
   40  -0.6976089E-02
   41  -0.6359337E-02
   42   0.0000000E+00
   43   0.1584391E+00
   44  -0.1633009E+00
   45   0.0000000E+00
   46  -0.2555387E-02
   47  -0.1193759E-01
   48  -0.4655541E+00
   49   0.0000000E+00
   50  -0.2760674E-01
   51  -0.3362416E-01
   52  -0.4149513E-02
   53   0.0000000E+00
   54  -0.6976089E-02
   55   0.6359337E-02
   56   0.0000000E+00
   57   0.8770994E-01
   58   0.3322117E-01
   59   0.0000000E+00
   60  -0.1474161E-01
   61  -0.1012350E-01
   62  -0.8770994E-01
   63  -0.3322117E-01
   64   0.0000000E+00
   65  -0.1474161E-01
   66   0.1012350E-01
   67   0.8364775E-01
   68   0.3475417E-01
   69   0.0000000E+00
   70   0.1239340E-02
   71   0.1605373E-01
   72  -0.8364775E-01
   73  -0.3475417E-01
   74   0.0000000E+00
   75   0.1239340E-02
   76  -0.1605373E-01
 Sym   = 1A
 Ene   =      -0.815806
 Spin  = ALPHA+BETA
 Occup =  2.0000
    1   0.1273248E+00
    2  -0.1676795E+00
    3   0.0000000E+00
    4   0.0000000E+00
    5   0.1372714E+00
    6  -0.2346042E+00
    7   0.0000000E+00
    8   0.0000000E+00
    9   0.8117049E-01
   10   0.2017400E-02
   11   0.0000000E+00
   12   0.0000000E+00
   13   0.1456131E-01
   14   0.0000000E+00
   15  -0.5502750E-01
   16   0.6187446E-01
   17   0.0000000E+00
   18   0.0000000E+00
   19   0.5801412E-01
   20   0.1826620E+00
   21   0.0000000E+00
   22   0.0000000E+00
   23   0.6435361E-01
   24  -0.1108991E-01
   25   0.0000000E+00
   26   0.0000000E+00
   27  -0.1982834E-02
   28   0.0000000E+00
   29  -0.4450868E-01
   30   0.4681927E-01
   31   0.0000000E+00
   32   0.2263260E+00
   33  -0.8066344E-01
   34   0.1455402E+00
   35   0.0000000E+00
   36   0.1779908E+00
   37  -0.6902858E-01
   38   0.8664704E-02
   39   0.0000000E+00
   40   0.1360047E-01
   41   0.8498588E-02
   42   0.0000000E+00
   43  -0.4450868E-01
   44   0.4681927E-01
   45   0.0000000E+00
   46  -0.2263260E+00
   47  -0.8066344E-01
   48   0.1455402E+00
   49   0.0000000E+00
   50  -0.1779908E+00
   51  -0.6902858E-01
   52   0.8664704E-02
   53   0.0000000E+00
   54  -0.1360047E-01
   55   0.8498588E-02
   56   0.0000000E+00
   57   0.1254033E+00
   58   0.8263783E-01
   59   0.0000000E+00
   60  -0.1318235E-01
   61  -0.1255253E-01
   62   0.1254033E+00
   63   0.8263783E-01
   64   0.0000000E+00
   65   0.1318235E-01
   66  -0.1255253E-01
   67   0.7987833E-01
   68   0.6097946E-01
   69   0.0000000E+00
   70   0.4426507E-02
   71   0.1023211E-01
   72   0.7987833E-01
   73   0.6097946E-01
   74   0.0000000E+00
   75  -0.4426507E-02
   76   0.1023211E-01
 Sym   = 1A
 Ene   =      -0.723023
 Spin  = ALPHA+BETA
 Occup =  2.0000
    1   0.0000000E+00
    2   0.0000000E+00
    3   0.0000000E+00
    4   0.2619386E+00
    5   0.0000000E+00
    6   0.0000000E+00
    7   0.0000000E+00
    8   0.8830340E-01
    9   0.0000000E+00
   10   0.0000000E+00
   11   0.0000000E+00
   12  -0.1543097E-01
   13   0.0000000E+00
   14   0.0000000E+00
   15   0.0000000E+00
   16   0.0000000E+00
   17   0.0000000E+00
   18   0.1109528E+00
   19   0.0000000E+00
   20   0.0000000E+00
   21   0.0000000E+00
   22   0.1110118E+00
   23   0.0000000E+00
   24   0.0000000E+00
   25   0.0000000E+00
   26  -0.1343576E-01
   27   0.0000000E+00
   28   0.0000000E+00
   29   0.9547624E-02
   30  -0.9861398E-02
   31   0.0000000E+00
   32  -0.9202936E-01
   33   0.2451415E+00
   34  -0.2060144E-01
   35   0.0000000E+00
   36  -0.8277928E-01
   37   0.2146111E+00
   38  -0.1370646E-02
   39   0.0000000E+00
   40  -0.9557292E-02
   41  -0.2704677E-02
   42   0.0000000E+00
   43  -0.9547624E-02
   44   0.9861398E-02
   45   0.0000000E+00
   46  -0.9202936E-01
   47  -0.2451415E+00
   48   0.2060144E-01
   49   0.0000000E+00
   50  -0.8277928E-01
   51  -0.2146111E+00
   52   0.1370646E-02
   53   0.0000000E+00
   54  -0.9557292E-02
   55   0.2704677E-02
   56   0.0000000E+00
   57   0.1792635E-01
   58   0.1223097E-01
   59   0.0000000E+00
   60  -0.4630119E-02
   61   0.2419465E-02
   62  -0.1792635E-01
   63  -0.1223097E-01
   64   0.0000000E+00
   65  -0.4630119E-02
   66  -0.2419465E-02
   67  -0.1684479E+00
   68  -0.1241149E+00
   69   0.0000000E+00
   70  -0.2205404E-02
   71  -0.2098378E-01
   72   0.1684479E+00
   73   0.1241149E+00
   74   0.0000000E+00
   75  -0.2205404E-02
   76   0.2098378E-01
 Sym   = 1A
 Ene   =      -0.718006
 Spin  = ALPHA+BETA
 Occup =  2.0000
    1  -0.3919408E-01
    2   0.5576836E-01
    3   0.0000000E+00
    4   0.0000000E+00
    5   0.5900880E-01
    6   0.7532803E-01
    7   0.0000000E+00
    8   0.0000000E+00
    9  -0.1663644E-01
   10  -0.1819557E-01
   11   0.0000000E+00
   12   0.0000000E+00
   13  -0.1273384E-01
   14   0.0000000E+00
   15   0.5947898E-01
   16  -0.6374855E-01
   17   0.0000000E+00
   18   0.0000000E+00
   19  -0.9811040E-01
   20  -0.2106958E+00
   21   0.0000000E+00
   22   0.0000000E+00
   23  -0.1021622E+00
   24   0.1029893E-01
   25   0.0000000E+00
   26   0.0000000E+00
   27   0.4650430E-03
   28   0.0000000E+00
   29  -0.6896667E-02
   30   0.7701975E-02
   31   0.0000000E+00
   32   0.1055682E+00
   33   0.2287411E+00
   34   0.2231695E-01
   35   0.0000000E+00
   36   0.1075142E+00
   37   0.1977949E+00
   38  -0.3212990E-02
   39   0.0000000E+00
   40  -0.2879197E-02
   41  -0.1885313E-02
   42   0.0000000E+00
   43  -0.6896667E-02
   44   0.7701975E-02
   45   0.0000000E+00
   46  -0.1055682E+00
   47   0.2287411E+00
   48   0.2231695E-01
   49   0.0000000E+00
   50  -0.1075142E+00
   51   0.1977949E+00
   52  -0.3212990E-02
   53   0.0000000E+00
   54   0.2879197E-02
   55  -0.1885313E-02
   56   0.0000000E+00
   57   0.1362376E+00
   58   0.8775086E-01
   59   0.0000000E+00
   60  -0.1564810E-01
   61  -0.5911205E-02
   62   0.1362376E+00
   63   0.8775086E-01
   64   0.0000000E+00
   65   0.1564810E-01
   66  -0.5911205E-02
   67  -0.1515420E+00
   68  -0.1276647E+00
   69   0.0000000E+00
   70   0.3192127E-02
   71  -0.1780608E-01
   72  -0.1515420E+00
   73  -0.1276647E+00
   74   0.0000000E+00
   75  -0.3192127E-02
   76  -0.1780608E-01
 Sym   = 1A
 Ene   =      -0.635068
 Spin  = ALPHA+BETA
 Occup =  2.0000
    1   0.0000000E+00
    2   0.0000000E+00
    3   0.0000000E+00
    4   0.1968034E+00
    5   0.0000000E+00
    6   0.0000000E+00
    7   0.0000000E+00
    8   0.7835361E-01
    9   0.0000000E+00
   10   0.0000000E+00
   11   0.0000000E+00
   12  -0.3421405E-01
   13   0.0000000E+00
   14   0.0000000E+00
   15   0.0000000E+00
   16   0.0000000E+00
   17   0.0000000E+00
   18   0.4258381E-01
   19   0.0000000E+00
   20   0.0000000E+00
   21   0.0000000E+00
   22   0.4528318E-01
   23   0.0000000E+00
   24   0.0000000E+00
   25   0.0000000E+00
   26  -0.1051835E-01
   27   0.0000000E+00
   28   0.0000000E+00
   29  -0.9954937E-02
   30   0.8292939E-02
   31   0.0000000E+00
   32  -0.2665332E+00
   33  -0.9688869E-01
   34   0.4517875E-01
   35   0.0000000E+00
   36  -0.2479416E+00
   37  -0.8458362E-01
   38   0.3945077E-02
   39   0.0000000E+00
   40  -0.9300816E-02
   41  -0.1407349E-03
   42   0.0000000E+00
   43   0.9954937E-02
   44  -0.8292939E-02
   45   0.0000000E+00
   46  -0.2665332E+00
   47   0.9688869E-01
   48  -0.4517875E-01
   49   0.0000000E+00
   50  -0.2479416E+00
   51   0.8458362E-01
   52  -0.3945077E-02
   53   0.0000000E+00
   54  -0.9300816E-02
   55   0.1407349E-03
   56   0.0000000E+00
   57  -0.1879141E+00
   58  -0.1567369E+00
   59   0.0000000E+00
   60   0.1814790E-01
   61   0.1200186E-01
   62   0.1879141E+00
   63   0.1567369E+00
   64   0.0000000E+00
   65   0.1814790E-01
   66  -0.1200186E-01
   67   0.7798360E-01
   68   0.6190215E-01
   69   0.0000000E+00
   70  -0.4075341E-02
   71   0.8500700E-02
   72  -0.7798360E-01
   73  -0.6190215E-01
   74   0.0000000E+00
   75  -0.4075341E-02
   76  -0.8500700E-02
 Sym   = 1A
 Ene   =      -0.574076
 Spin  = ALPHA+BETA
 Occup =  2.0000
    1   0.0000000E+00
    2   0.0000000E+00
    3   0.2671724E+00
    4   0.0000000E+00
    5   0.0000000E+00
    6   0.0000000E+00
    7   0.2336170E+00
    8   0.0000000E+00
    9   0.0000000E+00
   10   0.0000000E+00
   11  -0.4586716E-02
   12   0.0000000E+00
   13   0.0000000E+00
   14   0.0000000E+00
   15   0.0000000E+00
   16   0.0000000E+00
   17   0.1931959E+00
   18   0.0000000E+00
   19   0.0000000E+00
   20   0.0000000E+00
   21   0.2025403E+00
   22   0.0000000E+00
   23   0.0000000E+00
   24   0.0000000E+00
   25  -0.2369758E-01
   26   0.0000000E+00
   27   0.0000000E+00
   28   0.0000000E+00
   29   0.0000000E+00
   30   0.0000000E+00
   31   0.2387331E+00
   32   0.0000000E+00
   33   0.0000000E+00
   34   0.0000000E+00
   35   0.2598182E+00
   36   0.0000000E+00
   37   0.0000000E+00
   38   0.0000000E+00
   39   0.6711696E-02
   40   0.0000000E+00
   41   0.0000000E+00
   42  -0.1440534E-01
   43   0.0000000E+00
   44   0.0000000E+00
   45   0.2387331E+00
   46   0.0000000E+00
   47   0.0000000E+00
   48   0.0000000E+00
   49   0.2598182E+00
   50   0.0000000E+00
   51   0.0000000E+00
   52   0.0000000E+00
   53   0.6711696E-02
   54   0.0000000E+00
   55   0.0000000E+00
   56   0.1440534E-01
   57   0.0000000E+00
   58   0.0000000E+00
   59   0.9246952E-02
   60   0.0000000E+00
   61   0.0000000E+00
   62   0.0000000E+00
   63   0.0000000E+00
   64   0.9246952E-02
   65   0.0000000E+00
   66   0.0000000E+00
   67   0.0000000E+00
   68   0.0000000E+00
   69   0.9493463E-02
   70   0.0000000E+00
   71   0.0000000E+00
   72   0.0000000E+00
   73   0.0000000E+00
   74   0.9493463E-02
   75   0.0000000E+00
   76   0.0000000E+00
 Sym   = 1A
 Ene   =      -0.545337
 Spin  = ALPHA+BETA
 Occup =  2.0000
    1   0.5023664E-01
    2  -0.7207261E-01
    3   0.0000000E+00
    4   0.0000000E+00
    5  -0.3009109E+00
    6  -0.9677688E-01
    7   0.0000000E+00
    8   0.0000000E+00
    9  -0.3034357E-01
   10  -0.2274921E-01
   11   0.0000000E+00
   12   0.0000000E+00
   13  -0.1497655E-01
   14   0.0000000E+00
   15  -0.8206346E-01
   16   0.8872526E-01
   17   0.0000000E+00
   18   0.0000000E+00
   19   0.3831101E+00
   20   0.3298650E+00
   21   0.0000000E+00
   22   0.0000000E+00
   23   0.4300485E+00
   24  -0.3512343E-01
   25   0.0000000E+00
   26   0.0000000E+00
   27  -0.1028057E-02
   28   0.0000000E+00
   29  -0.1331683E-01
   30   0.1369414E-01
   31   0.0000000E+00
   32  -0.3733933E-01
   33   0.1088059E+00
   34   0.7115560E-01
   35   0.0000000E+00
   36  -0.6670849E-01
   37   0.7503258E-01
   38  -0.1287314E-01
   39   0.0000000E+00
   40   0.6344320E-02
   41  -0.6515288E-02
   42   0.0000000E+00
   43  -0.1331683E-01
   44   0.1369414E-01
   45   0.0000000E+00
   46   0.3733933E-01
   47   0.1088059E+00
   48   0.7115560E-01
   49   0.0000000E+00
   50   0.6670849E-01
   51   0.7503258E-01
   52  -0.1287314E-01
   53   0.0000000E+00
   54  -0.6344320E-02
   55  -0.6515288E-02
   56   0.0000000E+00
   57   0.3246043E-01
   58   0.5244301E-01
   59   0.0000000E+00
   60  -0.4438196E-02
   61   0.5350785E-03
   62   0.3246043E-01
   63   0.5244301E-01
   64   0.0000000E+00
   65   0.4438196E-02
   66   0.5350785E-03
   67  -0.8182043E-01
   68  -0.9316446E-01
   69   0.0000000E+00
   70   0.1300297E-02
   71  -0.7289325E-02
   72  -0.8182043E-01
   73  -0.9316446E-01
   74   0.0000000E+00
   75  -0.1300297E-02
   76  -0.7289325E-02
 Sym   = 1A
 Ene   =      -0.409000
 Spin  = ALPHA+BETA
 Occup =  2.0000
    1   0.0000000E+00
    2   0.0000000E+00
    3   0.0000000E+00
    4   0.0000000E+00
    5   0.0000000E+00
    6   0.0000000E+00
    7   0.0000000E+00
    8   0.0000000E+00
    9   0.0000000E+00
   10   0.0000000E+00
   11   0.0000000E+00
   12   0.0000000E+00
   13   0.0000000E+00
   14   0.3818069E-01
   15   0.0000000E+00
   16   0.0000000E+00
   17   0.0000000E+00
   18   0.0000000E+00
   19   0.0000000E+00
   20   0.0000000E+00
   21   0.0000000E+00
   22   0.0000000E+00
   23   0.0000000E+00
   24   0.0000000E+00
   25   0.0000000E+00
   26   0.0000000E+00
   27   0.0000000E+00
   28   0.2484027E-02
   29   0.0000000E+00
   30   0.0000000E+00
   31   0.3539321E+00
   32   0.0000000E+00
   33   0.0000000E+00
   34   0.0000000E+00
   35   0.4547034E+00
   36   0.0000000E+00
   37   0.0000000E+00
   38   0.0000000E+00
   39   0.3531752E-02
   40   0.0000000E+00
   41   0.0000000E+00
   42  -0.5665851E-02
   43   0.0000000E+00
   44   0.0000000E+00
   45  -0.3539321E+00
   46   0.0000000E+00
   47   0.0000000E+00
   48   0.0000000E+00
   49  -0.4547034E+00
   50   0.0000000E+00
   51   0.0000000E+00
   52   0.0000000E+00
   53  -0.3531752E-02
   54   0.0000000E+00
   55   0.0000000E+00
   56  -0.5665851E-02
   57   0.0000000E+00
   58   0.0000000E+00
   59   0.1269518E-01
   60   0.0000000E+00
   61   0.0000000E+00
   62   0.0000000E+00
   63   0.0000000E+00
   64  -0.1269518E-01
   65   0.0000000E+00
   66   0.0000000E+00
   67   0.0000000E+00
   68   0.0000000E+00
   69   0.1347925E-01
   70   0.0000000E+00
   71   0.0000000E+00
   72   0.0000000E+00
   73   0.0000000E+00
   74  -0.1347925E-01
   75   0.0000000E+00
   76   0.0000000E+00
 Sym   = 1A
 Ene   =      -0.386261
 Spin  = ALPHA+BETA
 Occup =  2.0000
    1   0.0000000E+00
    2   0.0000000E+00
    3   0.0000000E+00
    4  -0.3817819E-01
    5   0.0000000E+00
    6   0.0000000E+00
    7   0.0000000E+00
    8   0.1867407E+00
    9   0.0000000E+00
   10   0.0000000E+00
   11   0.0000000E+00
   12   0.5038617E-01
   13   0.0000000E+00
   14   0.0000000E+00
   15   0.0000000E+00
   16   0.0000000E+00
   17   0.0000000E+00
   18   0.4844962E+00
   19   0.0000000E+00
   20   0.0000000E+00
   21   0.0000000E+00
   22   0.5576257E+00
   23   0.0000000E+00
   24   0.0000000E+00
   25   0.0000000E+00
   26  -0.2469103E-01
   27   0.0000000E+00
   28   0.0000000E+00
   29   0.3153408E-01
   30  -0.2216766E-01
   31   0.0000000E+00
   32   0.7414555E-01
   33  -0.8408353E-01
   34  -0.2420996E+00
   35   0.0000000E+00
   36   0.1000943E+00
   37  -0.1133894E+00
   38   0.5752322E-02
   39   0.0000000E+00
   40   0.1741111E-02
   41   0.1756948E-02
   42   0.0000000E+00
   43  -0.3153408E-01
   44   0.2216766E-01
   45   0.0000000E+00
   46   0.7414555E-01
   47   0.8408353E-01
   48   0.2420996E+00
   49   0.0000000E+00
   50   0.1000943E+00
   51   0.1133894E+00
   52  -0.5752322E-02
   53   0.0000000E+00
   54   0.1741111E-02
   55  -0.1756948E-02
   56   0.0000000E+00
   57  -0.1627300E-02
   58   0.4354241E-01
   59   0.0000000E+00
   60  -0.3014996E-02
   61  -0.5285662E-03
   62   0.1627300E-02
   63  -0.4354241E-01
   64   0.0000000E+00
   65  -0.3014996E-02
   66   0.5285662E-03
   67   0.4928816E-01
   68   0.6469782E-01
   69   0.0000000E+00
   70   0.1584479E-02
   71   0.4226177E-02
   72  -0.4928816E-01
   73  -0.6469782E-01
   74   0.0000000E+00
   75   0.1584479E-02
   76  -0.4226177E-02
 Sym   = 1A
 Ene   =      -0.367163
 Spin  = ALPHA+BETA
 Occup =  2.0000
    1   0.0000000E+00
    2   0.0000000E+00
    3   0.7541008E-01
    4   0.0000000E+00
    5   0.0000000E+00
    6   0.0000000E+00
    7   0.1217869E+00
    8   0.0000000E+00
    9   0.0000000E+00
   10   0.0000000E+00
   11   0.4717850E-01
   12   0.0000000E+00
   13   0.0000000E+00
   14   0.0000000E+00
   15   0.0000000E+00
   16   0.0000000E+00
   17   0.4006473E+00
   18   0.0000000E+00
   19   0.0000000E+00
   20   0.0000000E+00