[Molden Format]
[SpaceGroup] (Number)
1

[Operators]
x, y, z

[Cell] (Angs)
      0.00000000      0.00000000      0.05031959        0.0000      0.0000      0.0000

[CellAxes] (Angs)
    5.56500000    0.00000000    0.00000000
    0.00000000    5.56500000    0.00000000
    0.00000000    0.00000000    4.68400000

[Atoms] (Fractional)
C      1     6      0.0000000000E+00   -0.5000000000E+00    0.3260000000E+00
O      2     8      0.0000000000E+00   -0.5000000000E+00   -0.4047000000E+00
N      3     7      0.1459000000E+00   -0.3541000000E+00    0.1766000000E+00
N      4     7     -0.1459000000E+00    0.3541000000E+00    0.1766000000E+00
H      5     1      0.1441000000E+00   -0.3559000000E+00   -0.3800000000E-01
H      6     1      0.2575000000E+00   -0.2425000000E+00    0.2827000000E+00
H      7     1     -0.1441000000E+00    0.3559000000E+00   -0.3800000000E-01
H      8     1     -0.2575000000E+00    0.2425000000E+00    0.2827000000E+00
C      9     6      0.5000000000E+00    0.0000000000E+00   -0.3260000000E+00
O     10     8      0.5000000000E+00    0.0000000000E+00    0.4047000000E+00
N     11     7     -0.3541000000E+00   -0.1459000000E+00   -0.1766000000E+00
N     12     7      0.3541000000E+00    0.1459000000E+00   -0.1766000000E+00
H     13     1     -0.3559000000E+00   -0.1441000000E+00    0.3800000000E-01
H     14     1     -0.2425000000E+00   -0.2575000000E+00   -0.2827000000E+00
H     15     1      0.3559000000E+00    0.1441000000E+00    0.3800000000E-01
H     16     1      0.2425000000E+00    0.2575000000E+00   -0.2827000000E+00
[5D]
[7F]
[GTO]
   1
s       6
     3047.52000000        0.53375539
      456.42400000        0.98927438
      103.65300000        1.59189144
       29.22580000        2.06423373
        9.34863000        1.78503360
        3.18904000        0.61701885
sp       2
        3.66498000       -0.74738434        1.70917758
        0.77054500        0.71266103        0.88562206
sp       1
        0.19585700        0.20982847        0.18572226
d       1
        0.80000000        1.92920137

   2
s       6
     5472.27000000        0.83080904
      817.80600000        1.53730975
      186.44600000        2.46782617
       53.02300000        3.21222537
       17.18000000        2.80501243
        5.91196000        0.98404774
sp       2
        7.40294000       -1.29369515        4.25723044
        1.57620000        1.22471212        2.14975723
sp       1
        0.37368400        0.34063437        0.41645753
d       1
        0.80000000        1.92920137

   3
s       6
     4150.11000000        0.68006065
      620.08400000        1.25443804
      141.68800000        2.00881384
       40.33670000        2.60742709
       13.02670000        2.27809981
        4.47003000        0.80118832
sp       2
        5.42522000       -1.04710105        2.80858564
        1.14915000        0.96855007        1.45673455
sp       1
        0.28320500        0.27668510        0.29448707
d       1
        0.80000000        1.92920137

   4
s       6
     4150.11000000        0.68006065
      620.08400000        1.25443804
      141.68800000        2.00881384
       40.33670000        2.60742709
       13.02670000        2.27809981
        4.47003000        0.80118832
sp       2
        5.42522000       -1.04710105        2.80858564
        1.14915000        0.96855007        1.45673455
sp       1
        0.28320500        0.27668510        0.29448707
d       1
        0.80000000        1.92920137

   5
s       2
        5.44717800        0.39715132
        0.82454724        0.55792004
s       1
        0.18319158        0.19956723
p       1
        1.10000000        1.60576114

   6
s       2
        5.44717800        0.39715132
        0.82454724        0.55792004
s       1
        0.18319158        0.19956723
p       1
        1.10000000        1.60576114

   7
s       2
        5.44717800        0.39715132
        0.82454724        0.55792004
s       1
        0.18319158        0.19956723
p       1
        1.10000000        1.60576114

   8
s       2
        5.44717800        0.39715132
        0.82454724        0.55792004
s       1
        0.18319158        0.19956723
p       1
        1.10000000        1.60576114

   9
s       6
     3047.52000000        0.53375539
      456.42400000        0.98927438
      103.65300000        1.59189144
       29.22580000        2.06423373
        9.34863000        1.78503360
        3.18904000        0.61701885
sp       2
        3.66498000       -0.74738434        1.70917758
        0.77054500        0.71266103        0.88562206
sp       1
        0.19585700        0.20982847        0.18572226
d       1
        0.80000000        1.92920137

  10
s       6
     5472.27000000        0.83080904
      817.80600000        1.53730975
      186.44600000        2.46782617
       53.02300000        3.21222537
       17.18000000        2.80501243
        5.91196000        0.98404774
sp       2
        7.40294000       -1.29369515        4.25723044
        1.57620000        1.22471212        2.14975723
sp       1
        0.37368400        0.34063437        0.41645753
d       1
        0.80000000        1.92920137

  11
s       6
     4150.11000000        0.68006065
      620.08400000        1.25443804
      141.68800000        2.00881384
       40.33670000        2.60742709
       13.02670000        2.27809981
        4.47003000        0.80118832
sp       2
        5.42522000       -1.04710105        2.80858564
        1.14915000        0.96855007        1.45673455
sp       1
        0.28320500        0.27668510        0.29448707
d       1
        0.80000000        1.92920137

  12
s       6
     4150.11000000        0.68006065
      620.08400000        1.25443804
      141.68800000        2.00881384
       40.33670000        2.60742709
       13.02670000        2.27809981
        4.47003000        0.80118832
sp       2
        5.42522000       -1.04710105        2.80858564
        1.14915000        0.96855007        1.45673455
sp       1
        0.28320500        0.27668510        0.29448707
d       1
        0.80000000        1.92920137

  13
s       2
        5.44717800        0.39715132
        0.82454724        0.55792004
s       1
        0.18319158        0.19956723
p       1
        1.10000000        1.60576114

  14
s       2
        5.44717800        0.39715132
        0.82454724        0.55792004
s       1
        0.18319158        0.19956723
p       1
        1.10000000        1.60576114

  15
s       2
        5.44717800        0.39715132
        0.82454724        0.55792004
s       1
        0.18319158        0.19956723
p       1
        1.10000000        1.60576114

  16
s       2
        5.44717800        0.39715132
        0.82454724        0.55792004
s       1
        0.18319158        0.19956723
p       1
        1.10000000        1.60576114

[MO]
 Sym   = 1A
 Ene   =     -20.553501
 Spin  = ALPHA+BETA
 Occup =  2.0000
    1   0.1784185E-04
    2   0.2046553E-03
    3   0.0000000E+00
    4   0.0000000E+00
    5   0.2372806E-03
    6   0.6621414E-03
    7   0.0000000E+00
    8   0.0000000E+00
    9   0.1393594E-02
   10  -0.6901982E-04
   11   0.0000000E+00
   12   0.0000000E+00
   13   0.0000000E+00
   14   0.1814733E-04
   15   0.9947080E+00
   16   0.2083535E-01
   17   0.0000000E+00
   18   0.0000000E+00
   19  -0.1427002E-02
   20  -0.1901948E-02
   21   0.0000000E+00
   22   0.0000000E+00
   23   0.1077034E-02
   24  -0.1122711E-03
   25   0.0000000E+00
   26   0.0000000E+00
   27   0.0000000E+00
   28   0.6135633E-04
   29   0.0000000E+00
   30  -0.3176786E-04
   31   0.3376363E-04
   32   0.3376363E-04
   33   0.2698457E-04
   34   0.2160707E-03
   35  -0.2617221E-03
   36  -0.2617221E-03
   37  -0.4004066E-03
   38   0.0000000E+00
   39   0.2037340E-04
   40   0.2037340E-04
   41   0.0000000E+00
   42   0.1896520E-04
   43   0.0000000E+00
   44  -0.3176786E-04
   45  -0.3376363E-04
   46  -0.3376363E-04
   47   0.2698457E-04
   48   0.2160707E-03
   49   0.2617221E-03
   50   0.2617221E-03
   51  -0.4004066E-03
   52   0.0000000E+00
   53  -0.2037340E-04
   54  -0.2037340E-04
   55   0.0000000E+00
   56   0.1896520E-04
   57  -0.1154667E-03
   58  -0.2411561E-04
   59   0.0000000E+00
   60   0.0000000E+00
   61  -0.5001887E-04
   62   0.8886893E-04
   63   0.1499543E-03
   64  -0.1582474E-04
   65  -0.1582474E-04
   66  -0.1235548E-04
   67  -0.1154667E-03
   68  -0.2411561E-04
   69   0.0000000E+00
   70   0.0000000E+00
   71  -0.5001887E-04
   72   0.8886893E-04
   73   0.1499543E-03
   74   0.1582474E-04
   75   0.1582474E-04
   76  -0.1235548E-04
   77   0.0000000E+00
   78   0.3295201E-04
   79   0.0000000E+00
   80   0.0000000E+00
   81   0.1098449E-04
   82  -0.1062732E-03
   83   0.0000000E+00
   84   0.0000000E+00
   85   0.1309078E-03
   86   0.0000000E+00
   87   0.0000000E+00
   88   0.0000000E+00
   89   0.0000000E+00
   90   0.0000000E+00
   91  -0.2257791E-03
   92  -0.2252934E-04
   93   0.0000000E+00
   94   0.0000000E+00
   95   0.0000000E+00
   96   0.1019976E-03
   97   0.0000000E+00
   98   0.0000000E+00
   99   0.6512661E-04
  100   0.1179173E-04
  101   0.0000000E+00
  102   0.0000000E+00
  103   0.0000000E+00
  104   0.0000000E+00
  105   0.0000000E+00
  106   0.0000000E+00
  107  -0.1992544E-04
  108   0.1992544E-04
  109   0.1366533E-04
  110  -0.7141120E-04
  111   0.1813268E-04
  112  -0.1813268E-04
  113  -0.3339553E-04
  114   0.0000000E+00
  115   0.1326659E-04
  116  -0.1326659E-04
  117   0.0000000E+00
  118   0.1225217E-04
  119   0.0000000E+00
  120   0.0000000E+00
  121   0.1992544E-04
  122  -0.1992544E-04
  123   0.1366533E-04
  124  -0.7141120E-04
  125  -0.1813268E-04
  126   0.1813268E-04
  127  -0.3339553E-04
  128   0.0000000E+00
  129  -0.1326659E-04
  130   0.1326659E-04
  131   0.0000000E+00
  132   0.1225217E-04
  133   0.1364751E-04
  134   0.1660482E-04
  135   0.0000000E+00
  136   0.0000000E+00
  137   0.0000000E+00
  138   0.0000000E+00
  139   0.8143662E-04
  140  -0.2758178E-04
  141   0.2758178E-04
  142   0.1707631E-04
  143   0.1364751E-04
  144   0.1660482E-04
  145   0.0000000E+00
  146   0.0000000E+00
  147   0.0000000E+00
  148   0.0000000E+00
  149   0.8143662E-04
  150   0.2758178E-04
  151  -0.2758178E-04
  152   0.1707631E-04
 Sym   = 1A
 Ene   =     -20.553501
 Spin  = ALPHA+BETA
 Occup =  2.0000
    1   0.0000000E+00
    2  -0.3295326E-04
    3   0.0000000E+00
    4   0.0000000E+00
    5   0.1098484E-04
    6   0.1062764E-03
    7   0.0000000E+00
    8   0.0000000E+00
    9   0.1308928E-03
   10   0.0000000E+00
   11   0.0000000E+00
   12   0.0000000E+00
   13   0.0000000E+00
   14   0.0000000E+00
   15   0.2257784E-03
   16   0.2253113E-04
   17   0.0000000E+00
   18   0.0000000E+00
   19   0.0000000E+00
   20  -0.1019909E-03
   21   0.0000000E+00
   22   0.0000000E+00
   23   0.6512477E-04
   24  -0.1179038E-04
   25   0.0000000E+00
   26   0.0000000E+00
   27   0.0000000E+00
   28   0.0000000E+00
   29   0.0000000E+00
   30   0.0000000E+00
   31   0.1992567E-04
   32   0.1992567E-04
   33   0.1366554E-04
   34   0.7140149E-04
   35  -0.1812969E-04
   36  -0.1812969E-04
   37  -0.3338742E-04
   38   0.0000000E+00
   39   0.1326806E-04
   40   0.1326806E-04
   41   0.0000000E+00
   42   0.1225326E-04
   43   0.0000000E+00
   44   0.0000000E+00
   45  -0.1992567E-04
   46  -0.1992567E-04
   47   0.1366554E-04
   48   0.7140149E-04
   49   0.1812969E-04
   50   0.1812969E-04
   51  -0.3338742E-04
   52   0.0000000E+00
   53  -0.1326806E-04
   54  -0.1326806E-04
   55   0.0000000E+00
   56   0.1225326E-04
   57  -0.1364145E-04
   58  -0.1660474E-04
   59   0.0000000E+00
   60   0.0000000E+00
   61   0.0000000E+00
   62   0.0000000E+00
   63  -0.8143262E-04
   64   0.2758132E-04
   65   0.2758132E-04
   66   0.1707512E-04
   67  -0.1364145E-04
   68  -0.1660474E-04
   69   0.0000000E+00
   70   0.0000000E+00
   71   0.0000000E+00
   72   0.0000000E+00
   73  -0.8143262E-04
   74  -0.2758132E-04
   75  -0.2758132E-04
   76   0.1707512E-04
   77   0.1784226E-04
   78   0.2046587E-03
   79   0.0000000E+00
   80   0.0000000E+00
   81  -0.2372791E-03
   82   0.6621229E-03
   83   0.0000000E+00
   84   0.0000000E+00
   85  -0.1393600E-02
   86  -0.6902058E-04
   87   0.0000000E+00
   88   0.0000000E+00
   89   0.0000000E+00
   90  -0.1814733E-04
   91   0.9947080E+00
   92   0.2083535E-01
   93   0.0000000E+00
   94   0.0000000E+00
   95   0.1427001E-02
   96  -0.1901948E-02
   97   0.0000000E+00
   98   0.0000000E+00
   99  -0.1077031E-02
  100  -0.1122678E-03
  101   0.0000000E+00
  102   0.0000000E+00
  103   0.0000000E+00
  104  -0.6135517E-04
  105   0.0000000E+00
  106  -0.3176702E-04
  107   0.3376445E-04
  108  -0.3376445E-04
  109  -0.2698430E-04
  110   0.2160711E-03
  111  -0.2617280E-03
  112   0.2617280E-03
  113   0.4004069E-03
  114   0.0000000E+00
  115  -0.2037289E-04
  116   0.2037289E-04
  117   0.0000000E+00
  118  -0.1896732E-04
  119   0.0000000E+00
  120  -0.3176702E-04
  121  -0.3376445E-04
  122   0.3376445E-04
  123  -0.2698430E-04
  124   0.2160711E-03
  125   0.2617280E-03
  126  -0.2617280E-03
  127   0.4004069E-03
  128   0.0000000E+00
  129   0.2037289E-04
  130  -0.2037289E-04
  131   0.0000000E+00
  132  -0.1896732E-04
  133  -0.1154693E-03
  134  -0.2411255E-04
  135   0.0000000E+00
  136   0.0000000E+00
  137   0.5001912E-04
  138   0.8886781E-04
  139   0.1499621E-03
  140  -0.1582535E-04
  141   0.1582535E-04
  142   0.1235573E-04
  143  -0.1154693E-03
  144  -0.2411255E-04
  145   0.0000000E+00
  146   0.0000000E+00
  147   0.5001912E-04
  148   0.8886781E-04
  149   0.1499621E-03
  150   0.1582535E-04
  151  -0.1582535E-04
  152   0.1235573E-04
 Sym   = 1A
 Ene   =     -15.582216
 Spin  = ALPHA+BETA
 Occup =  2.0000
    1   0.0000000E+00
    2   0.0000000E+00
    3   0.1750757E-03
    4   0.1750757E-03
    5   0.0000000E+00
    6   0.0000000E+00
    7   0.7559347E-03
    8   0.7559347E-03
    9   0.0000000E+00
   10   0.0000000E+00
   11   0.2010316E-04
   12   0.2010316E-04
   13   0.0000000E+00
   14   0.0000000E+00
   15   0.0000000E+00
   16   0.0000000E+00
   17  -0.1291546E-04
   18  -0.1291546E-04
   19   0.0000000E+00
   20   0.0000000E+00
   21  -0.1121199E-03
   22  -0.1121199E-03
   23   0.0000000E+00
   24   0.0000000E+00
   25   0.6769384E-04
   26   0.6769384E-04
   27   0.0000000E+00
   28   0.0000000E+00
   29   0.7035455E+00
   30   0.1547398E-01
   31  -0.1427964E-03
   32  -0.1427964E-03
   33   0.1017992E-03
   34  -0.2181656E-02
   35   0.1216983E-03
   36   0.1216983E-03
   37  -0.3732070E-03
   38  -0.2671718E-04
   39   0.0000000E+00
   40   0.0000000E+00
   41   0.0000000E+00
   42  -0.5017272E-04
   43  -0.7035455E+00
   44  -0.1547398E-01
   45  -0.1427964E-03
   46  -0.1427964E-03
   47  -0.1017992E-03
   48   0.2181656E-02
   49   0.1216983E-03
   50   0.1216983E-03
   51   0.3732070E-03
   52   0.2671718E-04
   53   0.0000000E+00
   54   0.0000000E+00
   55   0.0000000E+00
   56   0.5017272E-04
   57   0.1005894E-03
   58   0.2680183E-03
   59  -0.1591444E-04
   60  -0.1591444E-04
   61  -0.2649083E-04
   62   0.1979971E-03
   63   0.3822806E-03
   64   0.0000000E+00
   65   0.0000000E+00
   66   0.0000000E+00
   67  -0.1005894E-03
   68  -0.2680183E-03
   69  -0.1591444E-04
   70  -0.1591444E-04
   71   0.2649083E-04
   72  -0.1979971E-03
   73  -0.3822806E-03
   74   0.0000000E+00
   75   0.0000000E+00
   76   0.0000000E+00
   77   0.0000000E+00
   78   0.0000000E+00
   79  -0.1858370E-04
   80  -0.1858370E-04
   81   0.0000000E+00
   82   0.0000000E+00
   83   0.4490908E-04
   84   0.4490908E-04
   85   0.0000000E+00
   86   0.0000000E+00
   87   0.3181408E-04
   88   0.3181408E-04
   89   0.0000000E+00
   90   0.0000000E+00
   91   0.0000000E+00
   92   0.0000000E+00
   93  -0.5388077E-04
   94  -0.5388077E-04
   95   0.0000000E+00
   96   0.0000000E+00
   97   0.1562954E-03
   98   0.1562954E-03
   99   0.0000000E+00
  100   0.0000000E+00
  101   0.0000000E+00
  102   0.0000000E+00
  103   0.0000000E+00
  104   0.0000000E+00
  105   0.0000000E+00
  106   0.0000000E+00
  107   0.2217582E-04
  108   0.2217582E-04
  109   0.0000000E+00
  110   0.0000000E+00
  111  -0.6602808E-04
  112  -0.6602808E-04
  113   0.0000000E+00
  114   0.0000000E+00
  115   0.0000000E+00
  116   0.0000000E+00
  117   0.1022793E-04
  118   0.0000000E+00
  119   0.0000000E+00
  120   0.0000000E+00
  121   0.2217582E-04
  122   0.2217582E-04
  123   0.0000000E+00
  124   0.0000000E+00
  125  -0.6602808E-04
  126  -0.6602808E-04
  127   0.0000000E+00
  128   0.0000000E+00
  129   0.0000000E+00
  130   0.0000000E+00
  131  -0.1022793E-04
  132   0.0000000E+00
  133   0.0000000E+00
  134   0.0000000E+00
  135   0.0000000E+00
  136   0.0000000E+00
  137   0.0000000E+00
  138   0.0000000E+00
  139   0.0000000E+00
  140   0.0000000E+00
  141   0.0000000E+00
  142   0.0000000E+00
  143   0.0000000E+00
  144   0.0000000E+00
  145   0.0000000E+00
  146   0.0000000E+00
  147   0.0000000E+00
  148   0.0000000E+00
  149   0.0000000E+00
  150   0.0000000E+00
  151   0.0000000E+00
  152   0.0000000E+00
 Sym   = 1A
 Ene   =     -15.582216
 Spin  = ALPHA+BETA
 Occup =  2.0000
    1   0.0000000E+00
    2   0.0000000E+00
    3   0.1858370E-04
    4  -0.1858370E-04
    5   0.0000000E+00
    6   0.0000000E+00
    7  -0.4490908E-04
    8   0.4490908E-04
    9   0.0000000E+00
   10   0.0000000E+00
   11   0.3181408E-04
   12  -0.3181408E-04
   13   0.0000000E+00
   14   0.0000000E+00
   15   0.0000000E+00
   16   0.0000000E+00
   17   0.5388077E-04
   18  -0.5388077E-04
   19   0.0000000E+00
   20   0.0000000E+00
   21  -0.1562954E-03
   22   0.1562954E-03
   23   0.0000000E+00
   24   0.0000000E+00
   25   0.0000000E+00
   26   0.0000000E+00
   27   0.0000000E+00
   28   0.0000000E+00
   29   0.0000000E+00
   30   0.0000000E+00
   31  -0.2217582E-04
   32   0.2217582E-04
   33   0.0000000E+00
   34   0.0000000E+00
   35   0.6602808E-04
   36  -0.6602808E-04
   37   0.0000000E+00
   38   0.0000000E+00
   39   0.0000000E+00
   40   0.0000000E+00
   41  -0.1022793E-04
   42   0.0000000E+00
   43   0.0000000E+00
   44   0.0000000E+00
   45  -0.2217582E-04
   46   0.2217582E-04
   47   0.0000000E+00
   48   0.0000000E+00
   49   0.6602808E-04
   50  -0.6602808E-04
   51   0.0000000E+00
   52   0.0000000E+00
   53   0.0000000E+00
   54   0.0000000E+00
   55   0.1022793E-04
   56   0.0000000E+00
   57   0.0000000E+00
   58   0.0000000E+00
   59   0.0000000E+00
   60   0.0000000E+00
   61   0.0000000E+00
   62   0.0000000E+00
   63   0.0000000E+00
   64   0.0000000E+00
   65   0.0000000E+00
   66   0.0000000E+00
   67   0.0000000E+00
   68   0.0000000E+00
   69   0.0000000E+00
   70   0.0000000E+00
   71   0.0000000E+00
   72   0.0000000E+00
   73   0.0000000E+00
   74   0.0000000E+00
   75   0.0000000E+00
   76   0.0000000E+00
   77   0.0000000E+00
   78   0.0000000E+00
   79   0.1750757E-03
   80  -0.1750757E-03
   81   0.0000000E+00
   82   0.0000000E+00
   83   0.7559347E-03
   84  -0.7559347E-03
   85   0.0000000E+00
   86   0.0000000E+00
   87  -0.2010316E-04
   88   0.2010316E-04
   89   0.0000000E+00
   90   0.0000000E+00
   91   0.0000000E+00
   92   0.0000000E+00
   93  -0.1291546E-04
   94   0.1291546E-04
   95   0.0000000E+00
   96   0.0000000E+00
   97  -0.1121199E-03
   98   0.1121199E-03
   99   0.0000000E+00
  100   0.0000000E+00
  101  -0.6769384E-04
  102   0.6769384E-04
  103   0.0000000E+00
  104   0.0000000E+00
  105   0.7035455E+00
  106   0.1547398E-01
  107  -0.1427964E-03
  108   0.1427964E-03
  109  -0.1017992E-03
  110  -0.2181656E-02
  111   0.1216983E-03
  112  -0.1216983E-03
  113   0.3732070E-03
  114  -0.2671718E-04
  115   0.0000000E+00
  116   0.0000000E+00
  117   0.0000000E+00
  118   0.5017272E-04
  119  -0.7035455E+00
  120  -0.1547398E-01
  121  -0.1427964E-03
  122   0.1427964E-03
  123   0.1017992E-03
  124   0.2181656E-02
  125   0.1216983E-03
  126  -0.1216983E-03
  127  -0.3732070E-03
  128   0.2671718E-04
  129   0.0000000E+00
  130   0.0000000E+00
  131   0.0000000E+00
  132  -0.5017272E-04
  133   0.1005894E-03
  134   0.2680183E-03
  135  -0.1591444E-04
  136   0.1591444E-04
  137   0.2649083E-04
  138   0.1979971E-03
  139   0.3822806E-03
  140   0.0000000E+00
  141   0.0000000E+00
  142   0.0000000E+00
  143  -0.1005894E-03
  144  -0.2680183E-03
  145  -0.1591444E-04
  146   0.1591444E-04
  147  -0.2649083E-04
  148  -0.1979971E-03
  149  -0.3822806E-03
  150   0.0000000E+00
  151   0.0000000E+00
  152   0.0000000E+00
 Sym   = 1A
 Ene   =     -15.582209
 Spin  = ALPHA+BETA
 Occup =  2.0000
    1   0.0000000E+00
    2   0.3917225E-04
    3   0.0000000E+00
    4   0.0000000E+00
    5   0.0000000E+00
    6   0.9700220E-04
    7   0.0000000E+00
    8   0.0000000E+00
    9   0.1430073E-03
   10   0.2275319E-04
   11   0.0000000E+00
   12   0.0000000E+00
   13   0.0000000E+00
   14   0.0000000E+00
   15   0.0000000E+00
   16  -0.3860446E-04
   17   0.0000000E+00
   18   0.0000000E+00
   19  -0.2572121E-04
   20   0.0000000E+00
   21   0.0000000E+00
   22   0.0000000E+00
   23   0.1254655E-03
   24  -0.3537505E-04
   25   0.0000000E+00
   26   0.0000000E+00
   27   0.0000000E+00
   28  -0.3528926E-04
   29  -0.1787851E-03
   30  -0.1669094E-04
   31  -0.1046193E-04
   32  -0.1046193E-04
   33   0.0000000E+00
   34   0.9438170E-04
   35   0.4227405E-04
   36   0.4227405E-04
   37  -0.4252695E-04
   38   0.0000000E+00
   39   0.1352712E-04
   40   0.1352712E-04
   41   0.0000000E+00
   42   0.1646673E-04
   43  -0.1787851E-03
   44  -0.1669094E-04
   45   0.1046193E-04
   46   0.1046193E-04
   47   0.0000000E+00
   48   0.9438170E-04
   49  -0.4227405E-04
   50  -0.4227405E-04
   51  -0.4252695E-04
   52   0.0000000E+00
   53  -0.1352712E-04
   54  -0.1352712E-04
   55   0.0000000E+00
   56   0.1646673E-04
   57   0.0000000E+00
   58  -0.5065726E-04
   59   0.0000000E+00
   60   0.0000000E+00
   61  -0.1599761E-04
   62  -0.1724877E-04
   63  -0.3583947E-04
   64   0.1578747E-04
   65   0.1578747E-04
   66   0.0000000E+00
   67   0.0000000E+00
   68  -0.5065726E-04
   69   0.0000000E+00
   70   0.0000000E+00
   71  -0.1599761E-04
   72  -0.1724877E-04
   73  -0.3583947E-04
   74  -0.1578747E-04
   75  -0.1578747E-04
   76   0.0000000E+00
   77   0.5420787E-04
   78   0.1301455E-03
   79   0.0000000E+00
   80   0.0000000E+00
   81   0.7227260E-04
   82   0.1533909E-02
   83   0.0000000E+00
   84   0.0000000E+00
   85   0.7117010E-03
   86   0.3365604E-04
   87   0.0000000E+00
   88   0.0000000E+00
   89   0.0000000E+00
   90   0.3641094E-04
   91   0.0000000E+00
   92  -0.6085306E-04
   93   0.0000000E+00
   94   0.0000000E+00
   95   0.4302676E-04
   96   0.1085759E-03
   97   0.0000000E+00
   98   0.0000000E+00
   99  -0.2636493E-03
  100  -0.3578552E-04
  101   0.0000000E+00
  102   0.0000000E+00
  103   0.0000000E+00
  104  -0.3633499E-04
  105   0.7035452E+00
  106   0.1542415E-01
  107  -0.1240050E-03
  108   0.1240050E-03
  109  -0.5196386E-04
  110  -0.2134416E-02
  111   0.2996285E-03
  112  -0.2996285E-03
  113   0.3364722E-04
  114   0.3765840E-04
  115  -0.1924701E-04
  116   0.1924701E-04
  117   0.0000000E+00
  118   0.2370215E-04
  119   0.7035452E+00
  120   0.1542415E-01
  121   0.1240050E-03
  122  -0.1240050E-03
  123  -0.5196386E-04
  124  -0.2134416E-02
  125  -0.2996285E-03
  126   0.2996285E-03
  127   0.3364722E-04
  128   0.3765840E-04
  129   0.1924701E-04
  130  -0.1924701E-04
  131   0.0000000E+00
  132   0.2370215E-04
  133   0.1367703E-03
  134   0.3327033E-03
  135  -0.1188001E-04
  136   0.1188001E-04
  137   0.3992629E-04
  138   0.7226697E-04
  139   0.3236053E-03
  140   0.1573319E-04
  141  -0.1573319E-04
  142  -0.2859762E-04
  143   0.1367703E-03
  144   0.3327033E-03
  145   0.1188001E-04
  146  -0.1188001E-04
  147   0.3992629E-04
  148   0.7226697E-04
  149   0.3236053E-03
  150  -0.1573319E-04
  151   0.1573319E-04
  152  -0.2859762E-04
 Sym   = 1A
 Ene   =     -15.582209
 Spin  = ALPHA+BETA
 Occup =  2.0000
    1   0.5420376E-04
    2   0.1301465E-03
    3   0.0000000E+00
    4   0.0000000E+00
    5  -0.7227947E-04
    6   0.1533900E-02
    7   0.0000000E+00
    8   0.0000000E+00
    9  -0.7117160E-03
   10   0.3365229E-04
   11   0.0000000E+00
   12   0.0000000E+00
   13   0.0000000E+00
   14  -0.3641462E-04
   15   0.0000000E+00
   16  -0.6085039E-04
   17   0.0000000E+00
   18   0.0000000E+00
   19  -0.4302597E-04
   20   0.1085866E-03
   21   0.0000000E+00
   22   0.0000000E+00
   23   0.2636394E-03
   24  -0.3578636E-04
   25   0.0000000E+00
   26   0.0000000E+00
   27   0.0000000E+00
   28   0.3632835E-04
   29   0.7035452E+00
   30   0.1542415E-01
   31  -0.1240075E-03
   32  -0.1240075E-03
   33   0.5195926E-04
   34  -0.2134419E-02
   35   0.2996321E-03
   36   0.2996321E-03
   37  -0.3363429E-04
   38   0.3765694E-04
   39   0.1924580E-04
   40   0.1924580E-04
   41   0.0000000E+00
   42  -0.2370608E-04
   43   0.7035452E+00
   44   0.1542415E-01
   45   0.1240075E-03
   46   0.1240075E-03
   47   0.5195926E-04
   48  -0.2134419E-02
   49  -0.2996321E-03
   50  -0.2996321E-03
   51  -0.3363429E-04
   52   0.3765694E-04
   53  -0.1924580E-04
   54  -0.1924580E-04
   55   0.0000000E+00
   56  -0.2370608E-04
   57   0.1367700E-03
   58   0.3327088E-03
   59  -0.1188015E-04
   60  -0.1188015E-04
   61  -0.3992473E-04
   62   0.7226334E-04
   63   0.3236028E-03
   64   0.1573401E-04
   65   0.1573401E-04
   66   0.2859825E-04
   67   0.1367700E-03
   68   0.3327088E-03
   69   0.1188015E-04
   70   0.1188015E-04
   71  -0.3992473E-04
   72   0.7226334E-04
   73   0.3236028E-03
   74  -0.1573401E-04
   75  -0.1573401E-04
   76   0.2859825E-04
   77   0.0000000E+00
   78  -0.3917834E-04
   79   0.0000000E+00
   80   0.0000000E+00
   81   0.0000000E+00
   82  -0.9698642E-04
   83   0.0000000E+00
   84   0.0000000E+00
   85   0.1430172E-03
   86  -0.2275298E-04
   87   0.0000000E+00
   88   0.0000000E+00
   89   0.0000000E+00
   90   0.0000000E+00
   91   0.0000000E+00
   92   0.3860665E-04
   93   0.0000000E+00
   94   0.0000000E+00
   95  -0.2572142E-04
   96   0.0000000E+00
   97   0.0000000E+00
   98   0.0000000E+00
   99   0.1254640E-03
  100   0.3537493E-04
  101   0.0000000E+00
  102   0.0000000E+00
  103   0.0000000E+00
  104  -0.3528992E-04
  105   0.1787849E-03
  106   0.1669179E-04
  107   0.1046084E-04
  108  -0.1046084E-04
  109   0.0000000E+00
  110  -0.9438578E-04
  111  -0.4226758E-04
  112   0.4226758E-04
  113  -0.4253262E-04
  114   0.0000000E+00
  115   0.1352550E-04
  116  -0.1352550E-04
  117   0.0000000E+00
  118   0.1646435E-04
  119   0.1787849E-03
  120   0.1669179E-04
  121  -0.1046084E-04
  122   0.1046084E-04
  123   0.0000000E+00
  124  -0.9438578E-04
  125   0.4226758E-04
  126  -0.4226758E-04
  127  -0.4253262E-04
  128   0.0000000E+00
  129  -0.1352550E-04
  130   0.1352550E-04
  131   0.0000000E+00
  132   0.1646435E-04
  133   0.0000000E+00
  134   0.5065992E-04
  135   0.0000000E+00
  136   0.0000000E+00
  137  -0.1599891E-04
  138   0.1724885E-04
  139   0.3583214E-04
  140  -0.1578679E-04
  141   0.1578679E-04
  142   0.0000000E+00
  143   0.0000000E+00
  144   0.5065992E-04
  145   0.0000000E+00
  146   0.0000000E+00
  147  -0.1599891E-04
  148   0.1724885E-04
  149   0.3583214E-04
  150   0.1578679E-04
  151  -0.1578679E-04
  152   0.0000000E+00
 Sym   = 1A
 Ene   =     -11.394698
 Spin  = ALPHA+BETA
 Occup =  2.0000
    1   0.9954247E+00
    2   0.2094347E-01
    3   0.0000000E+00
    4   0.0000000E+00
    5   0.0000000E+00
    6  -0.2374511E-02
    7   0.0000000E+00
    8   0.0000000E+00
    9   0.3078255E-03
   10   0.5118203E-03
   11   0.0000000E+00
   12   0.0000000E+00
   13   0.0000000E+00
   14   0.5382779E-03
   15  -0.2533275E-03
   16   0.2390396E-03
   17   0.0000000E+00
   18   0.0000000E+00
   19  -0.3884633E-03
   20  -0.1999094E-04
   21   0.0000000E+00
   22   0.0000000E+00
   23   0.2864243E-03
   24  -0.7259967E-04
   25   0.0000000E+00
   26   0.0000000E+00
   27   0.0000000E+00
   28  -0.3759935E-04
   29  -0.2436157E-03
   30   0.2683781E-03
   31  -0.1616699E-03
   32  -0.1616699E-03
   33   0.1426125E-03
   34  -0.1822859E-03
   35  -0.1081549E-03
   36  -0.1081549E-03
   37  -0.5252203E-04
   38  -0.6619170E-04
   39  -0.2385255E-04
   40  -0.2385255E-04
   41   0.0000000E+00
   42  -0.2038913E-03
   43  -0.2436157E-03
   44   0.2683781E-03
   45   0.1616699E-03
   46   0.1616699E-03
   47   0.1426125E-03
   48  -0.1822859E-03
   49   0.1081549E-03
   50   0.1081549E-03
   51  -0.5252203E-04
   52  -0.6619170E-04
   53   0.2385255E-04
   54   0.2385255E-04
   55   0.0000000E+00
   56  -0.2038913E-03
   57  -0.3559270E-04
   58   0.3077096E-03
   59  -0.5550609E-04
   60  -0.5550609E-04
   61   0.9295631E-04
   62   0.2669558E-04
   63   0.4414084E-03
   64  -0.1096364E-03
   65  -0.1096364E-03
   66  -0.2661499E-04
   67  -0.3559270E-04
   68   0.3077096E-03
   69   0.5550609E-04
   70   0.5550609E-04
   71   0.9295631E-04
   72   0.2669558E-04
   73   0.4414084E-03
   74   0.1096364E-03
   75   0.1096364E-03
   76  -0.2661499E-04
   77   0.0000000E+00
   78   0.4740312E-04
   79   0.0000000E+00
   80   0.0000000E+00
   81  -0.1638237E-04
   82  -0.3115511E-03
   83   0.0000000E+00
   84   0.0000000E+00
   85   0.3816186E-03
   86  -0.1312221E-04
   87   0.0000000E+00
   88   0.0000000E+00
   89   0.0000000E+00
   90   0.3935981E-04
   91  -0.1063232E-04
   92  -0.8249496E-04
   93   0.0000000E+00
   94   0.0000000E+00
   95   0.1767157E-04
   96   0.3784009E-03
   97   0.0000000E+00
   98   0.0000000E+00
   99   0.4370019E-04
  100   0.3089866E-04
  101   0.0000000E+00
  102   0.0000000E+00
  103   0.0000000E+00
  104  -0.4406618E-04
  105   0.0000000E+00
  106  -0.2119821E-04
  107   0.0000000E+00
  108   0.0000000E+00
  109   0.3466916E-04
  110  -0.1024879E-04
  111   0.1502802E-03
  112  -0.1502802E-03
  113  -0.4710490E-03
  114  -0.4657120E-04
  115  -0.1532458E-04
  116   0.1532458E-04
  117   0.0000000E+00