[Molden Format]
[SpaceGroup] (Number)
1

[Operators]
x, y, z

[Cell] (Angs)
      0.00000000      0.00000000      0.05031959        0.0000      0.0000      0.0000

[CellAxes] (Angs)
    5.56500000    0.00000000    0.00000000
    0.00000000    5.56500000    0.00000000
    0.00000000    0.00000000    4.68400000

[Atoms] (Fractional)
C      1     6      0.0000000000E+00   -0.5000000000E+00    0.3260000000E+00
O      2     8      0.0000000000E+00   -0.5000000000E+00   -0.4047000000E+00
N      3     7      0.1459000000E+00   -0.3541000000E+00    0.1766000000E+00
N      4     7     -0.1459000000E+00    0.3541000000E+00    0.1766000000E+00
H      5     1      0.1441000000E+00   -0.3559000000E+00   -0.3800000000E-01
H      6     1      0.2575000000E+00   -0.2425000000E+00    0.2827000000E+00
H      7     1     -0.1441000000E+00    0.3559000000E+00   -0.3800000000E-01
H      8     1     -0.2575000000E+00    0.2425000000E+00    0.2827000000E+00
C      9     6      0.5000000000E+00    0.0000000000E+00   -0.3260000000E+00
O     10     8      0.5000000000E+00    0.0000000000E+00    0.4047000000E+00
N     11     7     -0.3541000000E+00   -0.1459000000E+00   -0.1766000000E+00
N     12     7      0.3541000000E+00    0.1459000000E+00   -0.1766000000E+00
H     13     1     -0.3559000000E+00   -0.1441000000E+00    0.3800000000E-01
H     14     1     -0.2425000000E+00   -0.2575000000E+00   -0.2827000000E+00
H     15     1      0.3559000000E+00    0.1441000000E+00    0.3800000000E-01
H     16     1      0.2425000000E+00    0.2575000000E+00   -0.2827000000E+00
[5D]
[7F]
[GTO]
   1
s       6
     3047.52000000        0.53375539
      456.42400000        0.98927438
      103.65300000        1.59189144
       29.22580000        2.06423373
        9.34863000        1.78503360
        3.18904000        0.61701885
sp       2
        3.66498000       -0.74738434        1.70917758
        0.77054500        0.71266103        0.88562206
sp       1
        0.19585700        0.20982847        0.18572226
d       1
        0.80000000        1.92920137

   2
s       6
     5472.27000000        0.83080904
      817.80600000        1.53730975
      186.44600000        2.46782617
       53.02300000        3.21222537
       17.18000000        2.80501243
        5.91196000        0.98404774
sp       2
        7.40294000       -1.29369515        4.25723044
        1.57620000        1.22471212        2.14975723
sp       1
        0.37368400        0.34063437        0.41645753
d       1
        0.80000000        1.92920137

   3
s       6
     4150.11000000        0.68006065
      620.08400000        1.25443804
      141.68800000        2.00881384
       40.33670000        2.60742709
       13.02670000        2.27809981
        4.47003000        0.80118832
sp       2
        5.42522000       -1.04710105        2.80858564
        1.14915000        0.96855007        1.45673455
sp       1
        0.28320500        0.27668510        0.29448707
d       1
        0.80000000        1.92920137

   4
s       6
     4150.11000000        0.68006065
      620.08400000        1.25443804
      141.68800000        2.00881384
       40.33670000        2.60742709
       13.02670000        2.27809981
        4.47003000        0.80118832
sp       2
        5.42522000       -1.04710105        2.80858564
        1.14915000        0.96855007        1.45673455
sp       1
        0.28320500        0.27668510        0.29448707
d       1
        0.80000000        1.92920137

   5
s       2
        5.44717800        0.39715132
        0.82454724        0.55792004
s       1
        0.18319158        0.19956723
p       1
        1.10000000        1.60576114

   6
s       2
        5.44717800        0.39715132
        0.82454724        0.55792004
s       1
        0.18319158        0.19956723
p       1
        1.10000000        1.60576114

   7
s       2
        5.44717800        0.39715132
        0.82454724        0.55792004
s       1
        0.18319158        0.19956723
p       1
        1.10000000        1.60576114

   8
s       2
        5.44717800        0.39715132
        0.82454724        0.55792004
s       1
        0.18319158        0.19956723
p       1
        1.10000000        1.60576114

   9
s       6
     3047.52000000        0.53375539
      456.42400000        0.98927438
      103.65300000        1.59189144
       29.22580000        2.06423373
        9.34863000        1.78503360
        3.18904000        0.61701885
sp       2
        3.66498000       -0.74738434        1.70917758
        0.77054500        0.71266103        0.88562206
sp       1
        0.19585700        0.20982847        0.18572226
d       1
        0.80000000        1.92920137

  10
s       6
     5472.27000000        0.83080904
      817.80600000        1.53730975
      186.44600000        2.46782617
       53.02300000        3.21222537
       17.18000000        2.80501243
        5.91196000        0.98404774
sp       2
        7.40294000       -1.29369515        4.25723044
        1.57620000        1.22471212        2.14975723
sp       1
        0.37368400        0.34063437        0.41645753
d       1
        0.80000000        1.92920137

  11
s       6
     4150.11000000        0.68006065
      620.08400000        1.25443804
      141.68800000        2.00881384
       40.33670000        2.60742709
       13.02670000        2.27809981
        4.47003000        0.80118832
sp       2
        5.42522000       -1.04710105        2.80858564
        1.14915000        0.96855007        1.45673455
sp       1
        0.28320500        0.27668510        0.29448707
d       1
        0.80000000        1.92920137

  12
s       6
     4150.11000000        0.68006065
      620.08400000        1.25443804
      141.68800000        2.00881384
       40.33670000        2.60742709
       13.02670000        2.27809981
        4.47003000        0.80118832
sp       2
        5.42522000       -1.04710105        2.80858564
        1.14915000        0.96855007        1.45673455
sp       1
        0.28320500        0.27668510        0.29448707
d       1
        0.80000000        1.92920137

  13
s       2
        5.44717800        0.39715132
        0.82454724        0.55792004
s       1
        0.18319158        0.19956723
p       1
        1.10000000        1.60576114

  14
s       2
        5.44717800        0.39715132
        0.82454724        0.55792004
s       1
        0.18319158        0.19956723
p       1
        1.10000000        1.60576114

  15
s       2
        5.44717800        0.39715132
        0.82454724        0.55792004
s       1
        0.18319158        0.19956723
p       1
        1.10000000        1.60576114

  16
s       2
        5.44717800        0.39715132
        0.82454724        0.55792004
s       1
        0.18319158        0.19956723
p       1
        1.10000000        1.60576114

[MO]
 Sym   = 1A
 Ene   =     -20.553500
 Spin  = ALPHA+BETA
 Occup =  2.0000
    1   0.0000000E+00
    2   0.1208310E-03
    3   0.0000000E+00
    4   0.0000000E+00
    5   0.1807324E-03
    6   0.6408211E-03
    7   0.0000000E+00
    8   0.0000000E+00
    9   0.6435161E-03
   10  -0.5076339E-04
   11   0.0000000E+00
   12   0.0000000E+00
   13   0.0000000E+00
   14   0.3122314E-04
   15   0.7033606E+00
   16   0.1469997E-01
   17   0.0000000E+00
   18   0.0000000E+00
   19  -0.1013093E-02
   20  -0.1169295E-02
   21   0.0000000E+00
   22   0.0000000E+00
   23   0.7352508E-03
   24  -0.8020766E-04
   25   0.0000000E+00
   26   0.0000000E+00
   27   0.0000000E+00
   28   0.4679492E-04
   29   0.0000000E+00
   30   0.0000000E+00
   31   0.2361302E-04
   32   0.2361302E-04
   33   0.0000000E+00
   34   0.7299890E-04
   35  -0.4758424E-04
   36  -0.4758424E-04
   37  -0.1538721E-03
   38  -0.1973921E-04
   39   0.4601407E-04
   40   0.4601407E-04
   41   0.0000000E+00
   42   0.3501310E-04
   43   0.0000000E+00
   44   0.0000000E+00
   45  -0.2361302E-04
   46  -0.2361302E-04
   47   0.0000000E+00
   48   0.7299890E-04
   49   0.4758424E-04
   50   0.4758424E-04
   51  -0.1538721E-03
   52  -0.1973921E-04
   53  -0.4601407E-04
   54  -0.4601407E-04
   55   0.0000000E+00
   56   0.3501310E-04
   57  -0.4125856E-04
   58  -0.4559451E-04
   59   0.1453891E-04
   60   0.1453891E-04
   61   0.0000000E+00
   62  -0.2500240E-04
   63   0.1353679E-04
   64   0.3055765E-04
   65   0.3055765E-04
   66   0.1490272E-04
   67  -0.4125856E-04
   68  -0.4559451E-04
   69  -0.1453891E-04
   70  -0.1453891E-04
   71   0.0000000E+00
   72  -0.2500240E-04
   73   0.1353679E-04
   74  -0.3055765E-04
   75  -0.3055765E-04
   76   0.1490272E-04
   77   0.0000000E+00
   78   0.1208310E-03
   79   0.0000000E+00
   80   0.0000000E+00
   81  -0.1807324E-03
   82   0.6408211E-03
   83   0.0000000E+00
   84   0.0000000E+00
   85  -0.6435161E-03
   86  -0.5076339E-04
   87   0.0000000E+00
   88   0.0000000E+00
   89   0.0000000E+00
   90  -0.3122314E-04
   91   0.7033606E+00
   92   0.1469997E-01
   93   0.0000000E+00
   94   0.0000000E+00
   95   0.1013093E-02
   96  -0.1169295E-02
   97   0.0000000E+00
   98   0.0000000E+00
   99  -0.7352508E-03
  100  -0.8020766E-04
  101   0.0000000E+00
  102   0.0000000E+00
  103   0.0000000E+00
  104  -0.4679492E-04
  105   0.0000000E+00
  106   0.0000000E+00
  107   0.2361302E-04
  108  -0.2361302E-04
  109   0.0000000E+00
  110   0.7299890E-04
  111  -0.4758424E-04
  112   0.4758424E-04
  113   0.1538721E-03
  114  -0.1973921E-04
  115  -0.4601407E-04
  116   0.4601407E-04
  117   0.0000000E+00
  118  -0.3501310E-04
  119   0.0000000E+00
  120   0.0000000E+00
  121  -0.2361302E-04
  122   0.2361302E-04
  123   0.0000000E+00
  124   0.7299890E-04
  125   0.4758424E-04
  126  -0.4758424E-04
  127   0.1538721E-03
  128  -0.1973921E-04
  129   0.4601407E-04
  130  -0.4601407E-04
  131   0.0000000E+00
  132  -0.3501310E-04
  133  -0.4125856E-04
  134  -0.4559451E-04
  135   0.1453891E-04
  136  -0.1453891E-04
  137   0.0000000E+00
  138  -0.2500240E-04
  139   0.1353679E-04
  140   0.3055765E-04
  141  -0.3055765E-04
  142  -0.1490272E-04
  143  -0.4125856E-04
  144  -0.4559451E-04
  145  -0.1453891E-04
  146   0.1453891E-04
  147   0.0000000E+00
  148  -0.2500240E-04
  149   0.1353679E-04
  150  -0.3055765E-04
  151   0.3055765E-04
  152  -0.1490272E-04
 Sym   = 1A
 Ene   =     -20.553500
 Spin  = ALPHA+BETA
 Occup =  2.0000
    1  -0.1133457E-04
    2  -0.1345221E-03
    3   0.0000000E+00
    4   0.0000000E+00
    5  -0.1778590E-03
    6  -0.5146654E-03
    7   0.0000000E+00
    8   0.0000000E+00
    9  -0.7108953E-03
   10   0.2609841E-04
   11   0.0000000E+00
   12   0.0000000E+00
   13   0.0000000E+00
   14   0.0000000E+00
   15  -0.7033613E+00
   16  -0.1470153E-01
   17   0.0000000E+00
   18   0.0000000E+00
   19   0.1010075E-02
   20   0.1186120E-02
   21   0.0000000E+00
   22   0.0000000E+00
   23  -0.7395554E-03
   24   0.8677824E-04
   25   0.0000000E+00
   26   0.0000000E+00
   27   0.0000000E+00
   28  -0.4250343E-04
   29   0.0000000E+00
   30   0.2673421E-04
   31   0.0000000E+00
   32   0.0000000E+00
   33   0.2006937E-04
   34  -0.8937081E-04
   35   0.7242095E-04
   36   0.7242095E-04
   37   0.7636626E-04
   38   0.3077475E-04
   39  -0.2420432E-04
   40  -0.2420432E-04
   41   0.0000000E+00
   42  -0.2335263E-04
   43   0.0000000E+00
   44   0.2673421E-04
   45   0.0000000E+00
   46   0.0000000E+00
   47   0.2006937E-04
   48  -0.8937081E-04
   49  -0.7242095E-04
   50  -0.7242095E-04
   51   0.7636626E-04
   52   0.3077475E-04
   53   0.2420432E-04
   54   0.2420432E-04
   55   0.0000000E+00
   56  -0.2335263E-04
   57   0.1594082E-04
   58   0.1071837E-04
   59   0.0000000E+00
   60   0.0000000E+00
   61  -0.1762223E-04
   62   0.0000000E+00
   63  -0.3032966E-04
   64   0.0000000E+00
   65   0.0000000E+00
   66   0.1260610E-04
   67   0.1594082E-04
   68   0.1071837E-04
   69   0.0000000E+00
   70   0.0000000E+00
   71  -0.1762223E-04
   72   0.0000000E+00
   73  -0.3032966E-04
   74   0.0000000E+00
   75   0.0000000E+00
   76   0.1260610E-04
   77   0.1133457E-04
   78   0.1345221E-03
   79   0.0000000E+00
   80   0.0000000E+00
   81  -0.1778590E-03
   82   0.5146654E-03
   83   0.0000000E+00
   84   0.0000000E+00
   85  -0.7108953E-03
   86  -0.2609841E-04
   87   0.0000000E+00
   88   0.0000000E+00
   89   0.0000000E+00
   90   0.0000000E+00
   91   0.7033613E+00
   92   0.1470153E-01
   93   0.0000000E+00
   94   0.0000000E+00
   95   0.1010075E-02
   96  -0.1186120E-02
   97   0.0000000E+00
   98   0.0000000E+00
   99  -0.7395554E-03
  100  -0.8677824E-04
  101   0.0000000E+00
  102   0.0000000E+00
  103   0.0000000E+00
  104  -0.4250343E-04
  105   0.0000000E+00
  106  -0.2673421E-04
  107   0.0000000E+00
  108   0.0000000E+00
  109   0.2006937E-04
  110   0.8937081E-04
  111  -0.7242095E-04
  112   0.7242095E-04
  113   0.7636626E-04
  114  -0.3077475E-04
  115  -0.2420432E-04
  116   0.2420432E-04
  117   0.0000000E+00
  118  -0.2335263E-04
  119   0.0000000E+00
  120  -0.2673421E-04
  121   0.0000000E+00
  122   0.0000000E+00
  123   0.2006937E-04
  124   0.8937081E-04
  125   0.7242095E-04
  126  -0.7242095E-04
  127   0.7636626E-04
  128  -0.3077475E-04
  129   0.2420432E-04
  130  -0.2420432E-04
  131   0.0000000E+00
  132  -0.2335263E-04
  133  -0.1594082E-04
  134  -0.1071837E-04
  135   0.0000000E+00
  136   0.0000000E+00
  137  -0.1762223E-04
  138   0.0000000E+00
  139   0.3032966E-04
  140   0.0000000E+00
  141   0.0000000E+00
  142   0.1260610E-04
  143  -0.1594082E-04
  144  -0.1071837E-04
  145   0.0000000E+00
  146   0.0000000E+00
  147  -0.1762223E-04
  148   0.0000000E+00
  149   0.3032966E-04
  150   0.0000000E+00
  151   0.0000000E+00
  152   0.1260610E-04
 Sym   = 1A
 Ene   =     -15.582216
 Spin  = ALPHA+BETA
 Occup =  2.0000
    1   0.0000000E+00
    2   0.0000000E+00
    3  -0.8708206E-04
    4  -0.1613617E-03
    5   0.0000000E+00
    6   0.0000000E+00
    7  -0.7460237E-03
    8  -0.5934180E-03
    9   0.0000000E+00
   10   0.0000000E+00
   11  -0.1317452E-04
   12  -0.3980388E-04
   13   0.0000000E+00
   14   0.0000000E+00
   15   0.0000000E+00
   16   0.0000000E+00
   17   0.0000000E+00
   18  -0.6688754E-04
   19   0.0000000E+00
   20   0.0000000E+00
   21   0.1277801E-03
   22   0.3057778E-03
   23   0.0000000E+00
   24   0.0000000E+00
   25  -0.5266518E-04
   26  -0.2883206E-04
   27   0.0000000E+00
   28   0.0000000E+00
   29  -0.4974832E+00
   30  -0.1095290E-01
   31   0.1058986E-03
   32   0.9938840E-04
   33  -0.7489252E-04
   34   0.1623282E-02
   35  -0.9722606E-04
   36  -0.1132365E-03
   37   0.3361228E-03
   38   0.1736351E-04
   39   0.0000000E+00
   40   0.0000000E+00
   41   0.0000000E+00
   42   0.3265604E-04
   43   0.4974832E+00
   44   0.1095290E-01
   45   0.1058986E-03
   46   0.9938840E-04
   47   0.7489252E-04
   48  -0.1623282E-02
   49  -0.9722606E-04
   50  -0.1132365E-03
   51  -0.3361228E-03
   52  -0.1736351E-04
   53   0.0000000E+00
   54   0.0000000E+00
   55   0.0000000E+00
   56  -0.3265604E-04
   57  -0.7211609E-04
   58  -0.1458951E-03
   59   0.1109397E-04
   60   0.1777741E-04
   61   0.3440819E-04
   62  -0.1442869E-03
   63  -0.2745723E-03
   64   0.1257011E-04
   65   0.0000000E+00
   66   0.0000000E+00
   67   0.7211609E-04
   68   0.1458951E-03
   69   0.1109397E-04
   70   0.1777741E-04
   71  -0.3440819E-04
   72   0.1442869E-03
   73   0.2745723E-03
   74   0.1257011E-04
   75   0.0000000E+00
   76   0.0000000E+00
   77   0.0000000E+00
   78   0.0000000E+00
   79  -0.8708206E-04
   80   0.1613617E-03
   81   0.0000000E+00
   82   0.0000000E+00
   83  -0.7460237E-03
   84   0.5934180E-03
   85   0.0000000E+00
   86   0.0000000E+00
   87   0.1317452E-04
   88  -0.3980388E-04
   89   0.0000000E+00
   90   0.0000000E+00
   91   0.0000000E+00
   92   0.0000000E+00
   93   0.0000000E+00
   94   0.6688754E-04
   95   0.0000000E+00
   96   0.0000000E+00
   97   0.1277801E-03
   98  -0.3057778E-03
   99   0.0000000E+00
  100   0.0000000E+00
  101   0.5266518E-04
  102  -0.2883206E-04
  103   0.0000000E+00
  104   0.0000000E+00
  105  -0.4974832E+00
  106  -0.1095290E-01
  107   0.1058986E-03
  108  -0.9938840E-04
  109   0.7489252E-04
  110   0.1623282E-02
  111  -0.9722606E-04
  112   0.1132365E-03
  113  -0.3361228E-03
  114   0.1736351E-04
  115   0.0000000E+00
  116   0.0000000E+00
  117   0.0000000E+00
  118  -0.3265604E-04
  119   0.4974832E+00
  120   0.1095290E-01
  121   0.1058986E-03
  122  -0.9938840E-04
  123  -0.7489252E-04
  124  -0.1623282E-02
  125  -0.9722606E-04
  126   0.1132365E-03
  127   0.3361228E-03
  128  -0.1736351E-04
  129   0.0000000E+00
  130   0.0000000E+00
  131   0.0000000E+00
  132   0.3265604E-04
  133  -0.7211609E-04
  134  -0.1458951E-03
  135   0.1109397E-04
  136  -0.1777741E-04
  137  -0.3440819E-04
  138  -0.1442869E-03
  139  -0.2745723E-03
  140   0.1257011E-04
  141   0.0000000E+00
  142   0.0000000E+00
  143   0.7211609E-04
  144   0.1458951E-03
  145   0.1109397E-04
  146  -0.1777741E-04
  147   0.3440819E-04
  148   0.1442869E-03
  149   0.2745723E-03
  150   0.1257011E-04
  151   0.0000000E+00
  152   0.0000000E+00
 Sym   = 1A
 Ene   =     -15.582216
 Spin  = ALPHA+BETA
 Occup =  2.0000
    1   0.0000000E+00
    2   0.0000000E+00
    3  -0.1613617E-03
    4  -0.8708206E-04
    5   0.0000000E+00
    6   0.0000000E+00
    7  -0.5934180E-03
    8  -0.7460237E-03
    9   0.0000000E+00
   10   0.0000000E+00
   11  -0.3980388E-04
   12  -0.1317452E-04
   13   0.0000000E+00
   14   0.0000000E+00
   15   0.0000000E+00
   16   0.0000000E+00
   17  -0.6688754E-04
   18   0.0000000E+00
   19   0.0000000E+00
   20   0.0000000E+00
   21   0.3057778E-03
   22   0.1277801E-03
   23   0.0000000E+00
   24   0.0000000E+00
   25  -0.2883206E-04
   26  -0.5266518E-04
   27   0.0000000E+00
   28   0.0000000E+00
   29  -0.4974832E+00
   30  -0.1095290E-01
   31   0.9938840E-04
   32   0.1058986E-03
   33  -0.7489252E-04
   34   0.1623282E-02
   35  -0.1132365E-03
   36  -0.9722606E-04
   37   0.3361228E-03
   38   0.1736351E-04
   39   0.0000000E+00
   40   0.0000000E+00
   41   0.0000000E+00
   42   0.3265604E-04
   43   0.4974832E+00
   44   0.1095290E-01
   45   0.9938840E-04
   46   0.1058986E-03
   47   0.7489252E-04
   48  -0.1623282E-02
   49  -0.1132365E-03
   50  -0.9722606E-04
   51  -0.3361228E-03
   52  -0.1736351E-04
   53   0.0000000E+00
   54   0.0000000E+00
   55   0.0000000E+00
   56  -0.3265604E-04
   57  -0.7211609E-04
   58  -0.1458951E-03
   59   0.1777741E-04
   60   0.1109397E-04
   61   0.3440819E-04
   62  -0.1442869E-03
   63  -0.2745723E-03
   64   0.0000000E+00
   65   0.1257011E-04
   66   0.0000000E+00
   67   0.7211609E-04
   68   0.1458951E-03
   69   0.1777741E-04
   70   0.1109397E-04
   71  -0.3440819E-04
   72   0.1442869E-03
   73   0.2745723E-03
   74   0.0000000E+00
   75   0.1257011E-04
   76   0.0000000E+00
   77   0.0000000E+00
   78   0.0000000E+00
   79   0.1613617E-03
   80  -0.8708206E-04
   81   0.0000000E+00
   82   0.0000000E+00
   83   0.5934180E-03
   84  -0.7460237E-03
   85   0.0000000E+00
   86   0.0000000E+00
   87  -0.3980388E-04
   88   0.1317452E-04
   89   0.0000000E+00
   90   0.0000000E+00
   91   0.0000000E+00
   92   0.0000000E+00
   93   0.6688754E-04
   94   0.0000000E+00
   95   0.0000000E+00
   96   0.0000000E+00
   97  -0.3057778E-03
   98   0.1277801E-03
   99   0.0000000E+00
  100   0.0000000E+00
  101  -0.2883206E-04
  102   0.5266518E-04
  103   0.0000000E+00
  104   0.0000000E+00
  105   0.4974832E+00
  106   0.1095290E-01
  107  -0.9938840E-04
  108   0.1058986E-03
  109  -0.7489252E-04
  110  -0.1623282E-02
  111   0.1132365E-03
  112  -0.9722606E-04
  113   0.3361228E-03
  114  -0.1736351E-04
  115   0.0000000E+00
  116   0.0000000E+00
  117   0.0000000E+00
  118   0.3265604E-04
  119  -0.4974832E+00
  120  -0.1095290E-01
  121  -0.9938840E-04
  122   0.1058986E-03
  123   0.7489252E-04
  124   0.1623282E-02
  125   0.1132365E-03
  126  -0.9722606E-04
  127  -0.3361228E-03
  128   0.1736351E-04
  129   0.0000000E+00
  130   0.0000000E+00
  131   0.0000000E+00
  132  -0.3265604E-04
  133   0.7211609E-04
  134   0.1458951E-03
  135  -0.1777741E-04
  136   0.1109397E-04
  137   0.3440819E-04
  138   0.1442869E-03
  139   0.2745723E-03
  140   0.0000000E+00
  141   0.1257011E-04
  142   0.0000000E+00
  143  -0.7211609E-04
  144  -0.1458951E-03
  145  -0.1777741E-04
  146   0.1109397E-04
  147  -0.3440819E-04
  148  -0.1442869E-03
  149  -0.2745723E-03
  150   0.0000000E+00
  151   0.1257011E-04
  152   0.0000000E+00
 Sym   = 1A
 Ene   =     -15.582210
 Spin  = ALPHA+BETA
 Occup =  2.0000
    1   0.4340991E-04
    2   0.5310108E-04
    3   0.0000000E+00
    4   0.0000000E+00
    5  -0.1617160E-03
    6   0.5965402E-03
    7   0.0000000E+00
    8   0.0000000E+00
    9  -0.6384608E-03
   10  -0.5172163E-04
   11   0.0000000E+00
   12   0.0000000E+00
   13   0.0000000E+00
   14  -0.5264081E-04
   15   0.0000000E+00
   16   0.0000000E+00
   17   0.0000000E+00
   18   0.0000000E+00
   19   0.8488032E-04
   20   0.1606524E-03
   21   0.0000000E+00
   22   0.0000000E+00
   23  -0.3289429E-03
   24   0.4577840E-04
   25   0.0000000E+00
   26   0.0000000E+00
   27   0.0000000E+00
   28   0.2820062E-04
   29   0.4974798E+00
   30   0.1090578E-01
   31  -0.8384330E-04
   32  -0.8384330E-04
   33   0.2724239E-04
   34  -0.1429755E-02
   35   0.1855121E-03
   36   0.1855121E-03
   37   0.1115196E-03
   38   0.0000000E+00
   39   0.1169282E-04
   40   0.1169282E-04
   41   0.0000000E+00
   42   0.0000000E+00
   43   0.4974798E+00
   44   0.1090578E-01
   45   0.8384330E-04
   46   0.8384330E-04
   47   0.2724239E-04
   48  -0.1429755E-02
   49  -0.1855121E-03
   50  -0.1855121E-03
   51   0.1115196E-03
   52   0.0000000E+00
   53  -0.1169282E-04
   54  -0.1169282E-04
   55   0.0000000E+00
   56   0.0000000E+00
   57   0.1271612E-03
   58   0.2872262E-03
   59   0.0000000E+00
   60   0.0000000E+00
   61   0.0000000E+00
   62   0.5982924E-04
   63   0.1522255E-03
   64   0.2296485E-04
   65   0.2296485E-04
   66   0.3083874E-04
   67   0.1271612E-03
   68   0.2872262E-03
   69   0.0000000E+00
   70   0.0000000E+00
   71   0.0000000E+00
   72   0.5982924E-04
   73   0.1522255E-03
   74  -0.2296485E-04
   75  -0.2296485E-04
   76   0.3083874E-04
   77   0.4340991E-04
   78   0.5310108E-04
   79   0.0000000E+00
   80   0.0000000E+00
   81   0.1617160E-03
   82   0.5965402E-03
   83   0.0000000E+00
   84   0.0000000E+00
   85   0.6384608E-03
   86  -0.5172163E-04
   87   0.0000000E+00
   88   0.0000000E+00
   89   0.0000000E+00
   90   0.5264081E-04
   91   0.0000000E+00
   92   0.0000000E+00
   93   0.0000000E+00
   94   0.0000000E+00
   95  -0.8488032E-04
   96   0.1606524E-03
   97   0.0000000E+00
   98   0.0000000E+00
   99   0.3289429E-03
  100   0.4577840E-04
  101   0.0000000E+00
  102   0.0000000E+00
  103   0.0000000E+00
  104  -0.2820062E-04
  105   0.4974798E+00
  106   0.1090578E-01
  107  -0.8384330E-04
  108   0.8384330E-04
  109  -0.2724239E-04
  110  -0.1429755E-02
  111   0.1855121E-03
  112  -0.1855121E-03
  113  -0.1115196E-03
  114   0.0000000E+00
  115  -0.1169282E-04
  116   0.1169282E-04
  117   0.0000000E+00
  118   0.0000000E+00
  119   0.4974798E+00
  120   0.1090578E-01
  121   0.8384330E-04
  122  -0.8384330E-04
  123  -0.2724239E-04
  124  -0.1429755E-02
  125  -0.1855121E-03
  126   0.1855121E-03
  127  -0.1115196E-03
  128   0.0000000E+00
  129   0.1169282E-04
  130  -0.1169282E-04
  131   0.0000000E+00
  132   0.0000000E+00
  133   0.1271612E-03
  134   0.2872262E-03
  135   0.0000000E+00
  136   0.0000000E+00
  137   0.0000000E+00
  138   0.5982924E-04
  139   0.1522255E-03
  140   0.2296485E-04
  141  -0.2296485E-04
  142  -0.3083874E-04
  143   0.1271612E-03
  144   0.2872262E-03
  145   0.0000000E+00
  146   0.0000000E+00
  147   0.0000000E+00
  148   0.5982924E-04
  149   0.1522255E-03
  150  -0.2296485E-04
  151   0.2296485E-04
  152  -0.3083874E-04
 Sym   = 1A
 Ene   =     -15.582209
 Spin  = ALPHA+BETA
 Occup =  2.0000
    1  -0.2306093E-04
    2   0.2039839E-04
    3   0.0000000E+00
    4   0.0000000E+00
    5   0.1167512E-03
    6  -0.1479406E-02
    7   0.0000000E+00
    8   0.0000000E+00
    9   0.6501465E-03
   10   0.0000000E+00
   11   0.0000000E+00
   12   0.0000000E+00
   13   0.0000000E+00
   14  -0.2236787E-04
   15   0.0000000E+00
   16   0.1109766E-04
   17   0.0000000E+00
   18   0.0000000E+00
   19  -0.3165383E-04
   20  -0.1007705E-04
   21   0.0000000E+00
   22   0.0000000E+00
   23   0.1928292E-04
   24   0.2911248E-04
   25   0.0000000E+00
   26   0.0000000E+00
   27   0.0000000E+00
   28   0.0000000E+00
   29  -0.4974873E+00
   30  -0.1093193E-01
   31   0.9507975E-04
   32   0.9507975E-04
   33  -0.4893802E-04
   34   0.1695828E-02
   35  -0.3099242E-03
   36  -0.3099242E-03
   37   0.1171088E-03
   38  -0.3412818E-04
   39  -0.2743031E-04
   40  -0.2743031E-04
   41   0.0000000E+00
   42   0.3490487E-04
   43  -0.4974873E+00
   44  -0.1093193E-01
   45  -0.9507975E-04
   46  -0.9507975E-04
   47  -0.4893802E-04
   48   0.1695828E-02
   49   0.3099242E-03
   50   0.3099242E-03
   51   0.1171088E-03
   52  -0.3412818E-04
   53   0.2743031E-04
   54   0.2743031E-04
   55   0.0000000E+00
   56   0.3490487E-04
   57  -0.6581869E-04
   58  -0.2617981E-03
   59   0.0000000E+00
   60   0.0000000E+00
   61   0.3097929E-04
   62  -0.4974907E-04
   63  -0.2193249E-03
   64   0.0000000E+00
   65   0.0000000E+00
   66  -0.2591562E-04
   67  -0.6581869E-04
   68  -0.2617981E-03
   69   0.0000000E+00
   70   0.0000000E+00
   71   0.3097929E-04
   72  -0.4974907E-04
   73  -0.2193249E-03
   74   0.0000000E+00
   75   0.0000000E+00
   76  -0.2591562E-04
   77   0.2306093E-04
   78  -0.2039839E-04
   79   0.0000000E+00
   80   0.0000000E+00
   81   0.1167512E-03
   82   0.1479406E-02
   83   0.0000000E+00
   84   0.0000000E+00
   85   0.6501465E-03
   86   0.0000000E+00
   87   0.0000000E+00
   88   0.0000000E+00
   89   0.0000000E+00
   90  -0.2236787E-04
   91   0.0000000E+00
   92  -0.1109766E-04
   93   0.0000000E+00
   94   0.0000000E+00
   95  -0.3165383E-04
   96   0.1007705E-04
   97   0.0000000E+00
   98   0.0000000E+00
   99   0.1928292E-04
  100  -0.2911248E-04
  101   0.0000000E+00
  102   0.0000000E+00
  103   0.0000000E+00
  104   0.0000000E+00
  105   0.4974873E+00
  106   0.1093193E-01
  107  -0.9507975E-04
  108   0.9507975E-04
  109  -0.4893802E-04
  110  -0.1695828E-02
  111   0.3099242E-03
  112  -0.3099242E-03
  113   0.1171088E-03
  114   0.3412818E-04
  115  -0.2743031E-04
  116   0.2743031E-04
  117   0.0000000E+00
  118   0.3490487E-04
  119   0.4974873E+00
  120   0.1093193E-01
  121   0.9507975E-04
  122  -0.9507975E-04
  123  -0.4893802E-04
  124  -0.1695828E-02
  125  -0.3099242E-03
  126   0.3099242E-03
  127   0.1171088E-03
  128   0.3412818E-04
  129   0.2743031E-04
  130  -0.2743031E-04
  131   0.0000000E+00
  132   0.3490487E-04
  133   0.6581869E-04
  134   0.2617981E-03
  135   0.0000000E+00
  136   0.0000000E+00
  137   0.3097929E-04
  138   0.4974907E-04
  139   0.2193249E-03
  140   0.0000000E+00
  141   0.0000000E+00
  142  -0.2591562E-04
  143   0.6581869E-04
  144   0.2617981E-03
  145   0.0000000E+00
  146   0.0000000E+00
  147   0.3097929E-04
  148   0.4974907E-04
  149   0.2193249E-03
  150   0.0000000E+00
  151   0.0000000E+00
  152  -0.2591562E-04
 Sym   = 1A
 Ene   =     -11.394697
 Spin  = ALPHA+BETA
 Occup =  2.0000
    1  -0.7038704E+00
    2  -0.1477071E-01
    3   0.0000000E+00
    4   0.0000000E+00
    5  -0.1625704E-04
    6   0.1605685E-02
    7   0.0000000E+00
    8   0.0000000E+00
    9  -0.3441901E-03
   10  -0.3764599E-03
   11   0.0000000E+00
   12   0.0000000E+00
   13   0.0000000E+00
   14  -0.3603446E-03
   15   0.1793558E-03
   16  -0.1571087E-03
   17   0.0000000E+00
   18   0.0000000E+00
   19   0.2834368E-03
   20   0.4995959E-04
   21   0.0000000E+00
   22   0.0000000E+00
   23  -0.2678108E-03
   24   0.6319655E-04
   25   0.0000000E+00
   26   0.0000000E+00
   27   0.0000000E+00
   28   0.2694883E-04
   29   0.1993883E-03
   30  -0.3198731E-04
   31   0.1092921E-03
   32   0.1092921E-03
   33  -0.1023467E-03
   34  -0.5863134E-03
   35   0.0000000E+00
   36   0.0000000E+00
   37   0.1307838E-03
   38   0.0000000E+00
   39  -0.1265819E-04
   40  -0.1265819E-04
   41   0.0000000E+00
   42   0.1023688E-03
   43   0.1993883E-03
   44  -0.3198731E-04
   45  -0.1092921E-03
   46  -0.1092921E-03
   47  -0.1023467E-03
   48  -0.5863134E-03
   49   0.0000000E+00
   50   0.0000000E+00
   51   0.1307838E-03
   52   0.0000000E+00
   53   0.1265819E-04
   54   0.1265819E-04
   55   0.0000000E+00
   56   0.1023688E-03
   57   0.0000000E+00
   58   0.2020784E-03
   59   0.3948655E-04
   60   0.3948655E-04
   61   0.1458328E-04
   62  -0.5269112E-04
   63   0.1487998E-03
   64   0.2079815E-04
   65   0.2079815E-04
   66  -0.3252727E-04
   67   0.0000000E+00
   68   0.2020784E-03
   69  -0.3948655E-04
   70  -0.3948655E-04
   71   0.1458328E-04
   72  -0.5269112E-04
   73   0.1487998E-03
   74  -0.2079815E-04
   75  -0.2079815E-04
   76  -0.3252727E-04
   77   0.7038704E+00
   78   0.1477071E-01
   79   0.0000000E+00
   80   0.0000000E+00
   81  -0.1625704E-04
   82  -0.1605685E-02
   83   0.0000000E+00
   84   0.0000000E+00
   85  -0.3441901E-03
   86   0.3764599E-03
   87   0.0000000E+00
   88   0.0000000E+00
   89   0.0000000E+00
   90  -0.3603446E-03
   91  -0.1793558E-03
   92   0.1571087E-03
   93   0.0000000E+00
   94   0.0000000E+00
   95   0.2834368E-03
   96  -0.4995959E-04
   97   0.0000000E+00
   98   0.0000000E+00
   99  -0.2678108E-03
  100  -0.6319655E-04
  101   0.0000000E+00
  102   0.0000000E+00
  103   0.0000000E+00
  104   0.2694883E-04
  105  -0.1993883E-03
  106   0.3198731E-04
  107  -0.1092921E-03
  108   0.1092921E-03
  109  -0.1023467E-03
  110   0.5863134E-03
  111   0.0000000E+00
  112   0.0000000E+00
  113   0.1307838E-03
  114   0.0000000E+00
  115  -0.1265819E-04
  116   0.1265819E-04
  117   0.0000000E+00