[Molden Format]
[SpaceGroup] (Number)
1

[Operators]
x, y, z

[Cell] (Angs)
      0.00000000      0.00000000      0.05031959        0.0000      0.0000      0.0000

[CellAxes] (Angs)
    5.56500000    0.00000000    0.00000000
    0.00000000    5.56500000    0.00000000
    0.00000000    0.00000000    4.68400000

[Atoms] (Fractional)
C      1     6      0.0000000000E+00   -0.5000000000E+00    0.3260000000E+00
O      2     8      0.0000000000E+00   -0.5000000000E+00   -0.4047000000E+00
N      3     7      0.1459000000E+00   -0.3541000000E+00    0.1766000000E+00
N      4     7     -0.1459000000E+00    0.3541000000E+00    0.1766000000E+00
H      5     1      0.1441000000E+00   -0.3559000000E+00   -0.3800000000E-01
H      6     1      0.2575000000E+00   -0.2425000000E+00    0.2827000000E+00
H      7     1     -0.1441000000E+00    0.3559000000E+00   -0.3800000000E-01
H      8     1     -0.2575000000E+00    0.2425000000E+00    0.2827000000E+00
C      9     6      0.5000000000E+00    0.0000000000E+00   -0.3260000000E+00
O     10     8      0.5000000000E+00    0.0000000000E+00    0.4047000000E+00
N     11     7     -0.3541000000E+00   -0.1459000000E+00   -0.1766000000E+00
N     12     7      0.3541000000E+00    0.1459000000E+00   -0.1766000000E+00
H     13     1     -0.3559000000E+00   -0.1441000000E+00    0.3800000000E-01
H     14     1     -0.2425000000E+00   -0.2575000000E+00   -0.2827000000E+00
H     15     1      0.3559000000E+00    0.1441000000E+00    0.3800000000E-01
H     16     1      0.2425000000E+00    0.2575000000E+00   -0.2827000000E+00
[5D]
[7F]
[GTO]
   1
s       6
     3047.52000000        0.53375539
      456.42400000        0.98927438
      103.65300000        1.59189144
       29.22580000        2.06423373
        9.34863000        1.78503360
        3.18904000        0.61701885
sp       2
        3.66498000       -0.74738434        1.70917758
        0.77054500        0.71266103        0.88562206
sp       1
        0.19585700        0.20982847        0.18572226
d       1
        0.80000000        1.92920137

   2
s       6
     5472.27000000        0.83080904
      817.80600000        1.53730975
      186.44600000        2.46782617
       53.02300000        3.21222537
       17.18000000        2.80501243
        5.91196000        0.98404774
sp       2
        7.40294000       -1.29369515        4.25723044
        1.57620000        1.22471212        2.14975723
sp       1
        0.37368400        0.34063437        0.41645753
d       1
        0.80000000        1.92920137

   3
s       6
     4150.11000000        0.68006065
      620.08400000        1.25443804
      141.68800000        2.00881384
       40.33670000        2.60742709
       13.02670000        2.27809981
        4.47003000        0.80118832
sp       2
        5.42522000       -1.04710105        2.80858564
        1.14915000        0.96855007        1.45673455
sp       1
        0.28320500        0.27668510        0.29448707
d       1
        0.80000000        1.92920137

   4
s       6
     4150.11000000        0.68006065
      620.08400000        1.25443804
      141.68800000        2.00881384
       40.33670000        2.60742709
       13.02670000        2.27809981
        4.47003000        0.80118832
sp       2
        5.42522000       -1.04710105        2.80858564
        1.14915000        0.96855007        1.45673455
sp       1
        0.28320500        0.27668510        0.29448707
d       1
        0.80000000        1.92920137

   5
s       2
        5.44717800        0.39715132
        0.82454724        0.55792004
s       1
        0.18319158        0.19956723
p       1
        1.10000000        1.60576114

   6
s       2
        5.44717800        0.39715132
        0.82454724        0.55792004
s       1
        0.18319158        0.19956723
p       1
        1.10000000        1.60576114

   7
s       2
        5.44717800        0.39715132
        0.82454724        0.55792004
s       1
        0.18319158        0.19956723
p       1
        1.10000000        1.60576114

   8
s       2
        5.44717800        0.39715132
        0.82454724        0.55792004
s       1
        0.18319158        0.19956723
p       1
        1.10000000        1.60576114

   9
s       6
     3047.52000000        0.53375539
      456.42400000        0.98927438
      103.65300000        1.59189144
       29.22580000        2.06423373
        9.34863000        1.78503360
        3.18904000        0.61701885
sp       2
        3.66498000       -0.74738434        1.70917758
        0.77054500        0.71266103        0.88562206
sp       1
        0.19585700        0.20982847        0.18572226
d       1
        0.80000000        1.92920137

  10
s       6
     5472.27000000        0.83080904
      817.80600000        1.53730975
      186.44600000        2.46782617
       53.02300000        3.21222537
       17.18000000        2.80501243
        5.91196000        0.98404774
sp       2
        7.40294000       -1.29369515        4.25723044
        1.57620000        1.22471212        2.14975723
sp       1
        0.37368400        0.34063437        0.41645753
d       1
        0.80000000        1.92920137

  11
s       6
     4150.11000000        0.68006065
      620.08400000        1.25443804
      141.68800000        2.00881384
       40.33670000        2.60742709
       13.02670000        2.27809981
        4.47003000        0.80118832
sp       2
        5.42522000       -1.04710105        2.80858564
        1.14915000        0.96855007        1.45673455
sp       1
        0.28320500        0.27668510        0.29448707
d       1
        0.80000000        1.92920137

  12
s       6
     4150.11000000        0.68006065
      620.08400000        1.25443804
      141.68800000        2.00881384
       40.33670000        2.60742709
       13.02670000        2.27809981
        4.47003000        0.80118832
sp       2
        5.42522000       -1.04710105        2.80858564
        1.14915000        0.96855007        1.45673455
sp       1
        0.28320500        0.27668510        0.29448707
d       1
        0.80000000        1.92920137

  13
s       2
        5.44717800        0.39715132
        0.82454724        0.55792004
s       1
        0.18319158        0.19956723
p       1
        1.10000000        1.60576114

  14
s       2
        5.44717800        0.39715132
        0.82454724        0.55792004
s       1
        0.18319158        0.19956723
p       1
        1.10000000        1.60576114

  15
s       2
        5.44717800        0.39715132
        0.82454724        0.55792004
s       1
        0.18319158        0.19956723
p       1
        1.10000000        1.60576114

  16
s       2
        5.44717800        0.39715132
        0.82454724        0.55792004
s       1
        0.18319158        0.19956723
p       1
        1.10000000        1.60576114

[MO]
 Sym   = 1A
 Ene   =     -20.553500
 Spin  = ALPHA+BETA
 Occup =  2.0000
    1  -0.1496664E-04
    2  -0.1847200E-03
    3   0.0000000E+00
    4   0.0000000E+00
    5  -0.2512471E-03
    6  -0.7739547E-03
    7   0.0000000E+00
    8   0.0000000E+00
    9  -0.9324778E-03
   10   0.5997330E-04
   11   0.0000000E+00
   12   0.0000000E+00
   13   0.0000000E+00
   14  -0.2279114E-04
   15  -0.9947022E+00
   16  -0.2078872E-01
   17   0.0000000E+00
   18   0.0000000E+00
   19   0.1427242E-02
   20   0.1645676E-02
   21   0.0000000E+00
   22   0.0000000E+00
   23  -0.1017192E-02
   24   0.1137531E-03
   25   0.0000000E+00
   26   0.0000000E+00
   27   0.0000000E+00
   28  -0.6474948E-04
   29   0.0000000E+00
   30   0.2107912E-04
   31  -0.1930790E-04
   32  -0.1996534E-04
   33   0.1226324E-04
   34  -0.9509399E-04
   35   0.8959789E-04
   36   0.9112911E-04
   37   0.1497571E-03
   38   0.3722211E-04
   39  -0.4779279E-04
   40  -0.4770711E-04
   41   0.0000000E+00
   42  -0.4058683E-04
   43   0.0000000E+00
   44   0.2107912E-04
   45   0.1930790E-04
   46   0.1996534E-04
   47   0.1226324E-04
   48  -0.9509399E-04
   49  -0.8959789E-04
   50  -0.9112911E-04
   51   0.1497571E-03
   52   0.3722211E-04
   53   0.4779279E-04
   54   0.4770711E-04
   55   0.0000000E+00
   56  -0.4058683E-04
   57   0.3884511E-04
   58   0.2613050E-04
   59  -0.1566916E-04
   60  -0.1583627E-04
   61  -0.1755296E-04
   62   0.1654819E-04
   63  -0.4774243E-04
   64  -0.1605107E-04
   65  -0.1657089E-04
   66   0.0000000E+00
   67   0.3884511E-04
   68   0.2613050E-04
   69   0.1566916E-04
   70   0.1583627E-04
   71  -0.1755296E-04
   72   0.1654819E-04
   73  -0.4774243E-04
   74   0.1605107E-04
   75   0.1657089E-04
   76   0.0000000E+00
   77   0.0000000E+00
   78   0.0000000E+00
   79   0.0000000E+00
   80  -0.1399332E-04
   81   0.0000000E+00
   82   0.0000000E+00
   83   0.0000000E+00
   84   0.3600070E-04
   85   0.0000000E+00
   86   0.0000000E+00
   87   0.1307700E-04
   88  -0.1183111E-04
   89   0.0000000E+00
   90   0.0000000E+00
   91   0.0000000E+00
   92   0.0000000E+00
   93   0.0000000E+00
   94   0.0000000E+00
   95   0.0000000E+00
   96   0.0000000E+00
   97   0.1180173E-04
   98   0.0000000E+00
   99   0.0000000E+00
  100   0.0000000E+00
  101   0.0000000E+00
  102   0.0000000E+00
  103   0.0000000E+00
  104   0.0000000E+00
  105   0.0000000E+00
  106   0.0000000E+00
  107  -0.2078097E-04
  108   0.2221152E-04
  109   0.2040330E-04
  110  -0.2099275E-04
  111   0.4146920E-04
  112  -0.5211865E-04
  113  -0.7237516E-04
  114  -0.1241582E-04
  115   0.0000000E+00
  116   0.0000000E+00
  117   0.0000000E+00
  118   0.1378407E-04
  119   0.0000000E+00
  120   0.0000000E+00
  121  -0.2078097E-04
  122   0.2221152E-04
  123  -0.2040330E-04
  124   0.2099275E-04
  125   0.4146920E-04
  126  -0.5211865E-04
  127   0.7237516E-04
  128   0.1241582E-04
  129   0.0000000E+00
  130   0.0000000E+00
  131   0.0000000E+00
  132  -0.1378407E-04
  133   0.3425898E-04
  134   0.2227867E-04
  135   0.0000000E+00
  136   0.1069381E-04
  137  -0.1562967E-04
  138   0.0000000E+00
  139  -0.2714558E-04
  140  -0.1902142E-04
  141   0.1975222E-04
  142   0.1127848E-04
  143  -0.3425898E-04
  144  -0.2227867E-04
  145   0.0000000E+00
  146   0.1069381E-04
  147   0.1562967E-04
  148   0.0000000E+00
  149   0.2714558E-04
  150  -0.1902142E-04
  151   0.1975222E-04
  152  -0.1127848E-04
 Sym   = 1A
 Ene   =     -20.553500
 Spin  = ALPHA+BETA
 Occup =  2.0000
    1   0.0000000E+00
    2   0.0000000E+00
    3   0.0000000E+00
    4   0.1399332E-04
    5   0.0000000E+00
    6   0.0000000E+00
    7   0.0000000E+00
    8  -0.3600070E-04
    9   0.0000000E+00
   10   0.0000000E+00
   11  -0.1307700E-04
   12  -0.1183111E-04
   13   0.0000000E+00
   14   0.0000000E+00
   15   0.0000000E+00
   16   0.0000000E+00
   17   0.0000000E+00
   18   0.0000000E+00
   19   0.0000000E+00
   20   0.0000000E+00
   21   0.1180173E-04
   22   0.0000000E+00
   23   0.0000000E+00
   24   0.0000000E+00
   25   0.0000000E+00
   26   0.0000000E+00
   27   0.0000000E+00
   28   0.0000000E+00
   29   0.0000000E+00
   30   0.0000000E+00
   31  -0.2078097E-04
   32  -0.2221152E-04
   33  -0.2040330E-04
   34  -0.2099275E-04
   35   0.4146920E-04
   36   0.5211865E-04
   37   0.7237516E-04
   38  -0.1241582E-04
   39   0.0000000E+00
   40   0.0000000E+00
   41   0.0000000E+00
   42  -0.1378407E-04
   43   0.0000000E+00
   44   0.0000000E+00
   45  -0.2078097E-04
   46  -0.2221152E-04
   47   0.2040330E-04
   48   0.2099275E-04
   49   0.4146920E-04
   50   0.5211865E-04
   51  -0.7237516E-04
   52   0.1241582E-04
   53   0.0000000E+00
   54   0.0000000E+00
   55   0.0000000E+00
   56   0.1378407E-04
   57   0.3425898E-04
   58   0.2227867E-04
   59   0.0000000E+00
   60  -0.1069381E-04
   61   0.1562967E-04
   62   0.0000000E+00
   63  -0.2714558E-04
   64  -0.1902142E-04
   65  -0.1975222E-04
   66  -0.1127848E-04
   67  -0.3425898E-04
   68  -0.2227867E-04
   69   0.0000000E+00
   70  -0.1069381E-04
   71  -0.1562967E-04
   72   0.0000000E+00
   73   0.2714558E-04
   74  -0.1902142E-04
   75  -0.1975222E-04
   76   0.1127848E-04
   77   0.1496664E-04
   78   0.1847200E-03
   79   0.0000000E+00
   80   0.0000000E+00
   81  -0.2512471E-03
   82   0.7739547E-03
   83   0.0000000E+00
   84   0.0000000E+00
   85  -0.9324778E-03
   86  -0.5997330E-04
   87   0.0000000E+00
   88   0.0000000E+00
   89   0.0000000E+00
   90  -0.2279114E-04
   91   0.9947022E+00
   92   0.2078872E-01
   93   0.0000000E+00
   94   0.0000000E+00
   95   0.1427242E-02
   96  -0.1645676E-02
   97   0.0000000E+00
   98   0.0000000E+00
   99  -0.1017192E-02
  100  -0.1137531E-03
  101   0.0000000E+00
  102   0.0000000E+00
  103   0.0000000E+00
  104  -0.6474948E-04
  105   0.0000000E+00
  106  -0.2107912E-04
  107   0.1930790E-04
  108  -0.1996534E-04
  109   0.1226324E-04
  110   0.9509399E-04
  111  -0.8959789E-04
  112   0.9112911E-04
  113   0.1497571E-03
  114  -0.3722211E-04
  115  -0.4779279E-04
  116   0.4770711E-04
  117   0.0000000E+00
  118  -0.4058683E-04
  119   0.0000000E+00
  120  -0.2107912E-04
  121  -0.1930790E-04
  122   0.1996534E-04
  123   0.1226324E-04
  124   0.9509399E-04
  125   0.8959789E-04
  126  -0.9112911E-04
  127   0.1497571E-03
  128  -0.3722211E-04
  129   0.4779279E-04
  130  -0.4770711E-04
  131   0.0000000E+00
  132  -0.4058683E-04
  133  -0.3884511E-04
  134  -0.2613050E-04
  135   0.1566916E-04
  136  -0.1583627E-04
  137  -0.1755296E-04
  138  -0.1654819E-04
  139   0.4774243E-04
  140   0.1605107E-04
  141  -0.1657089E-04
  142   0.0000000E+00
  143  -0.3884511E-04
  144  -0.2613050E-04
  145  -0.1566916E-04
  146   0.1583627E-04
  147  -0.1755296E-04
  148  -0.1654819E-04
  149   0.4774243E-04
  150  -0.1605107E-04
  151   0.1657089E-04
  152   0.0000000E+00
 Sym   = 1A
 Ene   =     -15.582215
 Spin  = ALPHA+BETA
 Occup =  2.0000
    1   0.1681427E-04
    2   0.6501090E-04
    3   0.0000000E+00
    4   0.0000000E+00
    5  -0.4604555E-04
    6  -0.5244972E-03
    7   0.0000000E+00
    8   0.0000000E+00
    9  -0.1143091E-03
   10  -0.5013601E-04
   11   0.0000000E+00
   12   0.0000000E+00
   13   0.0000000E+00
   14  -0.4809846E-04
   15   0.0000000E+00
   16   0.0000000E+00
   17   0.0000000E+00
   18   0.0000000E+00
   19   0.4243666E-04
   20   0.1531669E-03
   21   0.0000000E+00
   22   0.0000000E+00
   23  -0.2546616E-03
   24   0.5503798E-04
   25   0.0000000E+00
   26   0.0000000E+00
   27   0.0000000E+00
   28   0.2762773E-04
   29   0.2822336E-01
   30   0.5970513E-03
   31  -0.1076367E-04
   32   0.0000000E+00
   33   0.0000000E+00
   34   0.5915826E-04
   35  -0.2253489E-04
   36  -0.4505033E-04
   37   0.1390266E-03
   38  -0.1022562E-04
   39   0.0000000E+00
   40   0.0000000E+00
   41   0.0000000E+00
   42   0.2147422E-04
   43   0.2822336E-01
   44   0.5970513E-03
   45   0.1076367E-04
   46   0.0000000E+00
   47   0.0000000E+00
   48   0.5915826E-04
   49   0.2253489E-04
   50   0.4505033E-04
   51   0.1390266E-03
   52  -0.1022562E-04
   53   0.0000000E+00
   54   0.0000000E+00
   55   0.0000000E+00
   56   0.2147422E-04
   57   0.2880474E-04
   58   0.5241815E-04
   59   0.0000000E+00
   60   0.0000000E+00
   61   0.0000000E+00
   62  -0.1696747E-04
   63   0.0000000E+00
   64   0.1338224E-04
   65   0.0000000E+00
   66   0.0000000E+00
   67   0.2880474E-04
   68   0.5241815E-04
   69   0.0000000E+00
   70   0.0000000E+00
   71   0.0000000E+00
   72  -0.1696747E-04
   73   0.0000000E+00
   74  -0.1338224E-04
   75   0.0000000E+00
   76   0.0000000E+00
   77   0.0000000E+00
   78   0.0000000E+00
   79   0.1775404E-03
   80  -0.1727098E-03
   81   0.0000000E+00
   82   0.0000000E+00
   83   0.9496645E-03
   84  -0.9596568E-03
   85   0.0000000E+00
   86   0.0000000E+00
   87  -0.3497976E-04
   88   0.3456493E-04
   89   0.0000000E+00
   90   0.0000000E+00
   91   0.0000000E+00
   92   0.0000000E+00
   93   0.4852548E-04
   94  -0.4719879E-04
   95   0.0000000E+00
   96   0.0000000E+00
   97  -0.3055788E-03
   98   0.3044545E-03
   99   0.0000000E+00
  100   0.0000000E+00
  101  -0.5675812E-04
  102   0.5752276E-04
  103   0.0000000E+00
  104   0.0000000E+00
  105   0.7029798E+00
  106   0.1546960E-01
  107  -0.1468252E-03
  108   0.1487148E-03
  109  -0.1029282E-03
  110  -0.2257009E-02
  111   0.1752400E-03
  112  -0.1780873E-03
  113   0.4523298E-03
  114  -0.2713673E-04
  115   0.0000000E+00
  116   0.0000000E+00
  117   0.0000000E+00
  118   0.4310131E-04
  119  -0.7029798E+00
  120  -0.1546960E-01
  121  -0.1468252E-03
  122   0.1487148E-03
  123   0.1029282E-03
  124   0.2257009E-02
  125   0.1752400E-03
  126  -0.1780873E-03
  127  -0.4523298E-03
  128   0.2713673E-04
  129   0.0000000E+00
  130   0.0000000E+00
  131   0.0000000E+00
  132  -0.4310131E-04
  133   0.1062828E-03
  134   0.2115122E-03
  135  -0.2206275E-04
  136   0.2308155E-04
  137   0.4675733E-04
  138   0.2058850E-03
  139   0.3104422E-03
  140   0.0000000E+00
  141   0.0000000E+00
  142  -0.1564780E-04
  143  -0.1062828E-03
  144  -0.2115122E-03
  145  -0.2206275E-04
  146   0.2308155E-04
  147  -0.4675733E-04
  148  -0.2058850E-03
  149  -0.3104422E-03
  150   0.0000000E+00
  151   0.0000000E+00
  152   0.1564780E-04
 Sym   = 1A
 Ene   =     -15.582215
 Spin  = ALPHA+BETA
 Occup =  2.0000
    1   0.0000000E+00
    2   0.0000000E+00
    3   0.1775404E-03
    4   0.1727098E-03
    5   0.0000000E+00
    6   0.0000000E+00
    7   0.9496645E-03
    8   0.9596568E-03
    9   0.0000000E+00
   10   0.0000000E+00
   11   0.3497976E-04
   12   0.3456493E-04
   13   0.0000000E+00
   14   0.0000000E+00
   15   0.0000000E+00
   16   0.0000000E+00
   17   0.4852548E-04
   18   0.4719879E-04
   19   0.0000000E+00
   20   0.0000000E+00
   21  -0.3055788E-03
   22  -0.3044545E-03
   23   0.0000000E+00
   24   0.0000000E+00
   25   0.5675812E-04
   26   0.5752276E-04
   27   0.0000000E+00
   28   0.0000000E+00
   29   0.7029798E+00
   30   0.1546960E-01
   31  -0.1468252E-03
   32  -0.1487148E-03
   33   0.1029282E-03
   34  -0.2257009E-02
   35   0.1752400E-03
   36   0.1780873E-03
   37  -0.4523298E-03
   38  -0.2713673E-04
   39   0.0000000E+00
   40   0.0000000E+00
   41   0.0000000E+00
   42  -0.4310131E-04
   43  -0.7029798E+00
   44  -0.1546960E-01
   45  -0.1468252E-03
   46  -0.1487148E-03
   47  -0.1029282E-03
   48   0.2257009E-02
   49   0.1752400E-03
   50   0.1780873E-03
   51   0.4523298E-03
   52   0.2713673E-04
   53   0.0000000E+00
   54   0.0000000E+00
   55   0.0000000E+00
   56   0.4310131E-04
   57   0.1062828E-03
   58   0.2115122E-03
   59  -0.2206275E-04
   60  -0.2308155E-04
   61  -0.4675733E-04
   62   0.2058850E-03
   63   0.3104422E-03
   64   0.0000000E+00
   65   0.0000000E+00
   66   0.1564780E-04
   67  -0.1062828E-03
   68  -0.2115122E-03
   69  -0.2206275E-04
   70  -0.2308155E-04
   71   0.4675733E-04
   72  -0.2058850E-03
   73  -0.3104422E-03
   74   0.0000000E+00
   75   0.0000000E+00
   76  -0.1564780E-04
   77  -0.1681427E-04
   78  -0.6501090E-04
   79   0.0000000E+00
   80   0.0000000E+00
   81  -0.4604555E-04
   82   0.5244972E-03
   83   0.0000000E+00
   84   0.0000000E+00
   85  -0.1143091E-03
   86   0.5013601E-04
   87   0.0000000E+00
   88   0.0000000E+00
   89   0.0000000E+00
   90  -0.4809846E-04
   91   0.0000000E+00
   92   0.0000000E+00
   93   0.0000000E+00
   94   0.0000000E+00
   95   0.4243666E-04
   96  -0.1531669E-03
   97   0.0000000E+00
   98   0.0000000E+00
   99  -0.2546616E-03
  100  -0.5503798E-04
  101   0.0000000E+00
  102   0.0000000E+00
  103   0.0000000E+00
  104   0.2762773E-04
  105  -0.2822336E-01
  106  -0.5970513E-03
  107   0.1076367E-04
  108   0.0000000E+00
  109   0.0000000E+00
  110  -0.5915826E-04
  111   0.2253489E-04
  112  -0.4505033E-04
  113   0.1390266E-03
  114   0.1022562E-04
  115   0.0000000E+00
  116   0.0000000E+00
  117   0.0000000E+00
  118   0.2147422E-04
  119  -0.2822336E-01
  120  -0.5970513E-03
  121  -0.1076367E-04
  122   0.0000000E+00
  123   0.0000000E+00
  124  -0.5915826E-04
  125  -0.2253489E-04
  126   0.4505033E-04
  127   0.1390266E-03
  128   0.1022562E-04
  129   0.0000000E+00
  130   0.0000000E+00
  131   0.0000000E+00
  132   0.2147422E-04
  133  -0.2880474E-04
  134  -0.5241815E-04
  135   0.0000000E+00
  136   0.0000000E+00
  137   0.0000000E+00
  138   0.1696747E-04
  139   0.0000000E+00
  140  -0.1338224E-04
  141   0.0000000E+00
  142   0.0000000E+00
  143  -0.2880474E-04
  144  -0.5241815E-04
  145   0.0000000E+00
  146   0.0000000E+00
  147   0.0000000E+00
  148   0.1696747E-04
  149   0.0000000E+00
  150   0.1338224E-04
  151   0.0000000E+00
  152   0.0000000E+00
 Sym   = 1A
 Ene   =     -15.582209
 Spin  = ALPHA+BETA
 Occup =  2.0000
    1   0.0000000E+00
    2   0.0000000E+00
    3   0.2924143E-04
    4  -0.6489542E-04
    5   0.0000000E+00
    6   0.0000000E+00
    7  -0.1601110E-03
    8   0.0000000E+00
    9   0.0000000E+00
   10   0.0000000E+00
   11   0.2303777E-04
   12  -0.1160250E-04
   13   0.0000000E+00
   14   0.0000000E+00
   15   0.0000000E+00
   16   0.0000000E+00
   17   0.4617925E-04
   18  -0.4879248E-04
   19   0.0000000E+00
   20   0.0000000E+00
   21  -0.1138247E-03
   22   0.1435731E-03
   23   0.0000000E+00
   24   0.0000000E+00
   25  -0.1782840E-04
   26   0.1044882E-04
   27   0.0000000E+00
   28   0.0000000E+00
   29  -0.2822830E-01
   30  -0.6169155E-03
   31   0.2697712E-04
   32   0.0000000E+00
   33  -0.1169173E-04
   34   0.1127648E-03
   35  -0.5236021E-04
   36  -0.2046091E-04
   37   0.9195898E-04
   38  -0.1180928E-04
   39   0.0000000E+00
   40  -0.1049225E-04
   41   0.0000000E+00
   42   0.0000000E+00
   43   0.2822830E-01
   44   0.6169155E-03
   45   0.2697712E-04
   46   0.0000000E+00
   47   0.1169173E-04
   48  -0.1127648E-03
   49  -0.5236021E-04
   50  -0.2046091E-04
   51  -0.9195898E-04
   52   0.1180928E-04
   53   0.0000000E+00
   54  -0.1049225E-04
   55   0.0000000E+00
   56   0.0000000E+00
   57   0.1800067E-04
   58   0.1790733E-04
   59   0.0000000E+00
   60   0.0000000E+00
   61   0.1832286E-04
   62   0.1003666E-04
   63  -0.5204865E-04
   64   0.1021138E-04
   65   0.0000000E+00
   66   0.0000000E+00
   67  -0.1800067E-04
   68  -0.1790733E-04
   69   0.0000000E+00
   70   0.0000000E+00
   71  -0.1832286E-04
   72  -0.1003666E-04
   73   0.5204865E-04
   74   0.1021138E-04
   75   0.0000000E+00
   76   0.0000000E+00
   77  -0.4754192E-04
   78  -0.2825716E-04
   79   0.0000000E+00
   80   0.0000000E+00
   81  -0.1936112E-03
   82  -0.1452243E-02
   83   0.0000000E+00
   84   0.0000000E+00
   85  -0.8645535E-03
   86   0.3261266E-04
   87   0.0000000E+00
   88   0.0000000E+00
   89   0.0000000E+00
   90  -0.2190170E-04
   91   0.0000000E+00
   92   0.0000000E+00
   93   0.0000000E+00
   94   0.0000000E+00
   95   0.7826789E-04
   96  -0.1008868E-03
   97   0.0000000E+00
   98   0.0000000E+00
   99  -0.2246063E-03
  100  -0.1221797E-04
  101   0.0000000E+00
  102   0.0000000E+00
  103   0.0000000E+00
  104   0.1312357E-04
  105  -0.7029814E+00
  106  -0.1543056E-01
  107   0.1246128E-03
  108  -0.1226381E-03
  109   0.5751136E-04
  110   0.2201936E-02
  111  -0.3256685E-03
  112   0.3206402E-03
  113  -0.3955074E-04
  114  -0.3104865E-04
  115   0.2560820E-04
  116  -0.2552193E-04
  117   0.0000000E+00
  118  -0.2838606E-04
  119  -0.7029814E+00
  120  -0.1543056E-01
  121  -0.1246128E-03
  122   0.1226381E-03
  123   0.5751136E-04
  124   0.2201936E-02
  125   0.3256685E-03
  126  -0.3206402E-03
  127  -0.3955074E-04
  128  -0.3104865E-04
  129  -0.2560820E-04
  130   0.2552193E-04
  131   0.0000000E+00
  132  -0.2838606E-04
  133  -0.1348521E-03
  134  -0.3533388E-03
  135   0.1052310E-04
  136   0.0000000E+00
  137  -0.3554118E-04
  138  -0.7933771E-04
  139  -0.3182402E-03
  140  -0.1716047E-04
  141   0.1829828E-04
  142   0.3832082E-04
  143  -0.1348521E-03
  144  -0.3533388E-03
  145  -0.1052310E-04
  146   0.0000000E+00
  147  -0.3554118E-04
  148  -0.7933771E-04
  149  -0.3182402E-03
  150   0.1716047E-04
  151  -0.1829828E-04
  152   0.3832082E-04
 Sym   = 1A
 Ene   =     -15.582209
 Spin  = ALPHA+BETA
 Occup =  2.0000
    1   0.4754192E-04
    2   0.2825716E-04
    3   0.0000000E+00
    4   0.0000000E+00
    5  -0.1936112E-03
    6   0.1452243E-02
    7   0.0000000E+00
    8   0.0000000E+00
    9  -0.8645535E-03
   10  -0.3261266E-04
   11   0.0000000E+00
   12   0.0000000E+00
   13   0.0000000E+00
   14  -0.2190170E-04
   15   0.0000000E+00
   16   0.0000000E+00
   17   0.0000000E+00
   18   0.0000000E+00
   19   0.7826789E-04
   20   0.1008868E-03
   21   0.0000000E+00
   22   0.0000000E+00
   23  -0.2246063E-03
   24   0.1221797E-04
   25   0.0000000E+00
   26   0.0000000E+00
   27   0.0000000E+00
   28   0.1312357E-04
   29   0.7029814E+00
   30   0.1543056E-01
   31  -0.1246128E-03
   32  -0.1226381E-03
   33   0.5751136E-04
   34  -0.2201936E-02
   35   0.3256685E-03
   36   0.3206402E-03
   37  -0.3955074E-04
   38   0.3104865E-04
   39   0.2560820E-04
   40   0.2552193E-04
   41   0.0000000E+00
   42  -0.2838606E-04
   43   0.7029814E+00
   44   0.1543056E-01
   45   0.1246128E-03
   46   0.1226381E-03
   47   0.5751136E-04
   48  -0.2201936E-02
   49  -0.3256685E-03
   50  -0.3206402E-03
   51  -0.3955074E-04
   52   0.3104865E-04
   53  -0.2560820E-04
   54  -0.2552193E-04
   55   0.0000000E+00
   56  -0.2838606E-04
   57   0.1348521E-03
   58   0.3533388E-03
   59  -0.1052310E-04
   60   0.0000000E+00
   61  -0.3554118E-04
   62   0.7933771E-04
   63   0.3182402E-03
   64   0.1716047E-04
   65   0.1829828E-04
   66   0.3832082E-04
   67   0.1348521E-03
   68   0.3533388E-03
   69   0.1052310E-04
   70   0.0000000E+00
   71  -0.3554118E-04
   72   0.7933771E-04
   73   0.3182402E-03
   74  -0.1716047E-04
   75  -0.1829828E-04
   76   0.3832082E-04
   77   0.0000000E+00
   78   0.0000000E+00
   79   0.2924143E-04
   80   0.6489542E-04
   81   0.0000000E+00
   82   0.0000000E+00
   83  -0.1601110E-03
   84   0.0000000E+00
   85   0.0000000E+00
   86   0.0000000E+00
   87  -0.2303777E-04
   88  -0.1160250E-04
   89   0.0000000E+00
   90   0.0000000E+00
   91   0.0000000E+00
   92   0.0000000E+00
   93   0.4617925E-04
   94   0.4879248E-04
   95   0.0000000E+00
   96   0.0000000E+00
   97  -0.1138247E-03
   98  -0.1435731E-03
   99   0.0000000E+00
  100   0.0000000E+00
  101   0.1782840E-04
  102   0.1044882E-04
  103   0.0000000E+00
  104   0.0000000E+00
  105  -0.2822830E-01
  106  -0.6169155E-03
  107   0.2697712E-04
  108   0.0000000E+00
  109   0.1169173E-04
  110   0.1127648E-03
  111  -0.5236021E-04
  112   0.2046091E-04
  113  -0.9195898E-04
  114  -0.1180928E-04
  115   0.0000000E+00
  116  -0.1049225E-04
  117   0.0000000E+00
  118   0.0000000E+00
  119   0.2822830E-01
  120   0.6169155E-03
  121   0.2697712E-04
  122   0.0000000E+00
  123  -0.1169173E-04
  124  -0.1127648E-03
  125  -0.5236021E-04
  126   0.2046091E-04
  127   0.9195898E-04
  128   0.1180928E-04
  129   0.0000000E+00
  130  -0.1049225E-04
  131   0.0000000E+00
  132   0.0000000E+00
  133   0.1800067E-04
  134   0.1790733E-04
  135   0.0000000E+00
  136   0.0000000E+00
  137  -0.1832286E-04
  138   0.1003666E-04
  139  -0.5204865E-04
  140   0.1021138E-04
  141   0.0000000E+00
  142   0.0000000E+00
  143  -0.1800067E-04
  144  -0.1790733E-04
  145   0.0000000E+00
  146   0.0000000E+00
  147   0.1832286E-04
  148  -0.1003666E-04
  149   0.5204865E-04
  150   0.1021138E-04
  151   0.0000000E+00
  152   0.0000000E+00
 Sym   = 1A
 Ene   =     -11.394697
 Spin  = ALPHA+BETA
 Occup =  2.0000
    1   0.0000000E+00
    2   0.0000000E+00
    3   0.0000000E+00
    4  -0.1262892E-04
    5   0.0000000E+00
    6   0.0000000E+00
    7  -0.4514829E-03
    8  -0.4383304E-03
    9   0.0000000E+00
   10   0.0000000E+00
   11   0.4382117E-04
   12   0.3926453E-04
   13   0.0000000E+00
   14   0.0000000E+00
   15   0.0000000E+00
   16   0.0000000E+00
   17   0.1759869E-04
   18   0.0000000E+00
   19   0.0000000E+00
   20   0.0000000E+00
   21  -0.2490694E-04
   22   0.6839426E-04
   23   0.0000000E+00
   24   0.0000000E+00
   25  -0.3894921E-04
   26  -0.2760771E-04
   27   0.0000000E+00
   28   0.0000000E+00
   29   0.0000000E+00
   30   0.4068652E-04
   31   0.1915306E-04
   32   0.1143936E-04
   33  -0.1696924E-04
   34  -0.1491401E-03
   35  -0.2635042E-03
   36  -0.2495092E-03
   37   0.2659499E-03
   38  -0.3131753E-04
   39  -0.4369122E-04
   40  -0.4440317E-04
   41   0.0000000E+00
   42   0.0000000E+00
   43   0.0000000E+00
   44  -0.4068652E-04
   45   0.1915306E-04
   46   0.1143936E-04
   47   0.1696924E-04
   48   0.1491401E-03
   49  -0.2635042E-03
   50  -0.2495092E-03
   51  -0.2659499E-03
   52   0.3131753E-04
   53  -0.4369122E-04
   54  -0.4440317E-04
   55   0.0000000E+00
   56   0.0000000E+00
   57   0.0000000E+00
   58   0.3493865E-03
   59   0.1095400E-04
   60   0.1474320E-04
   61   0.7530575E-04
   62  -0.5053115E-04
   63   0.4706258E-03
   64  -0.4604224E-04
   65  -0.4881670E-04
   66  -0.4463178E-04
   67   0.0000000E+00
   68  -0.3493865E-03
   69   0.1095400E-04
   70   0.1474320E-04
   71  -0.7530575E-04
   72   0.5053115E-04
   73  -0.4706258E-03
   74  -0.4604224E-04
   75  -0.4881670E-04
   76   0.4463178E-04
   77  -0.9954188E+00
   78  -0.2090110E-01
   79   0.0000000E+00
   80   0.0000000E+00
   81  -0.1281435E-04
   82   0.2135786E-02
   83   0.0000000E+00
   84   0.0000000E+00
   85   0.1360724E-03
   86  -0.5047770E-03
   87   0.0000000E+00
   88   0.0000000E+00
   89   0.0000000E+00
   90   0.5580108E-03
   91   0.2529260E-03
   92  -0.2466314E-03
   93   0.0000000E+00
   94   0.0000000E+00
   95  -0.3711515E-03
   96   0.0000000E+00
   97   0.0000000E+00
   98   0.0000000E+00
   99   0.2055584E-03
  100   0.7011137E-04
  101   0.0000000E+00
  102   0.0000000E+00
  103   0.0000000E+00
  104  -0.3179356E-04
  105   0.2564468E-03
  106  -0.1978446E-03
  107   0.1710701E-03
  108  -0.1633559E-03
  109   0.1444030E-03
  110  -0.1493791E-03
  111  -0.3681183E-04
  112   0.1678398E-04
  113  -0.1663707E-03
  114   0.3591177E-04
  115   0.0000000E+00
  116   0.0000000E+00
  117   0.0000000E+00