
         
 *******************************************************************************
 *                                                                             *
 *                               CRYSTAL23                                     *
 *                      public : 1.0.1 - October 2022                          *
 *                       HTTP://WWW.CRYSTAL.UNITO.IT                           *
 *                                                                             *
 *                              MAIN AUTHORS                                   *
 *                                                                             *
 *  R. DOVESI(1,11), V.R. SAUNDERS(2), C. ROETTI(1,11), R. ORLANDO(1,11),      *
 *  C.M. ZICOVICH-WILSON(1,3), F. PASCALE(4), B. CIVALLERI(1,11),              *
 *  K. DOLL(5), N.M. HARRISON(6), I.J. BUSH(7), Ph. D'ARCO(8),                 *
 *  M. LLUNELL(9), M. CAUSA'(10), Y. NOEL(8), L. MASCHIO(1,11), A. ERBA(1,11)  *
 *  M. RE'RAT(14), S. CASASSA(1,11), B.G. SEARLE(2), J.K. DESMARAIS(1)         *
 *                                                                             *
 *        CONTRIBUTIONS TO THE CODE HAVE ALSO BEEN GIVEN BY                    *
 *                                                                             *
 *  M. FERRABONE(1,11), M. DE LA PIERRE(1,11), M. FERRERO(1,11),               *
 *  J. BAIMA(1,11), E. ALBANESE(1,11), M.F. PEINTINGER(12), R. BAST(13),       *
 *  B. KIRTMAN(15), V. LACIVITA(1,11), R. DEMICHELIS(1,16)                     *
 *  G. BRANDEBURG(17), S. SALUSTRO(1,11), G. SANSONE(1,11)                     *
 *  M.T. RUGGIERO(18), L.E. DAGA(1), L. DONA'(1), A. COSSARD(1)                *
 *                                                                             *
 * (1) THEORETICAL CHEMISTRY GROUP - UNIVERSITA' DI TORINO - TORINO (ITALY)    *
 * (2) SCIENTIFIC COMPUTING DEPARTMENT - STFC DARESBURY (UK)                   *
 * (3) UNIVERSIDAD AUTONOMA DEL ESTADO DE MORELOS - CUERNAVACA (MEXICO)        *
 * (4) UNIVERSITE' DE LORRAINE - NANCY (FRANCE)                                *
 * (5) UNIVERSITAET STUTTGART- STUTTGART (GERMANY)                             *
 * (6) IMPERIAL COLLEGE - LONDON (UK)                                          *
 * (7) SCIENTIFIC COMPUTING DEPARTMENT - STFC RAL (UK)                         *
 * (8) UPMC - SORBONNE UNIVERSITES - PARIS (FRANCE)                            *
 * (9) UNIVERSIDAD DE BARCELONA - BARCELONA (SPAIN)                            *
 *(10) UNIVERSITA' DI NAPOLI "FEDERICO II" - NAPOLI (ITALY)                    *
 *(11) NIS - NANOSTRUCTURED INTERFACES AND SURFACES - TORINO (ITALY)           *
 *(12) MPI FUER CHEMISCHE ENERGIEKONVERSION - MUELHEIM AN DER RUHR (GERMANY)   *
 *(13) UNIVERSITY OF TROMSO - TROMSO (NORWAY)                                  *
 *(14) UNIVERSITE' DE PAU ET DES PAYS DE L'ADOUR - PAU (FRANCE)                *
 *(15) UNIVERSITY OF CALIFORNIA SANTA BARBARA - SANTA BARBARA (USA)            *
 *(16) CURTIN UNIVERSITY - PERTH (AUSTRALIA)                                   *
 *(17) UNIVERSITY COLLEGE LONDON - LONDON (UK)                                 *
 *(18) UNIVERSITY OF VERMONT - BURLINGTON (USA)                                *
 *                                                                             *
 *******************************************************************************
 EEEEEEEEEE STARTING  DATE 16 09 2024 TIME 11:45:03.9
 BERILLIUM BULK                                                                  

 CRYSTAL CALCULATION
 (INPUT ACCORDING TO THE INTERNATIONAL TABLES FOR X-RAY CRYSTALLOGRAPHY)
 CRYSTAL FAMILY                       :  HEXAGONAL   
 CRYSTAL CLASS  (GROTH - 1921)        :  DIHEXAGONAL DIPYRAMIDAL              

 SPACE GROUP (CENTROSYMMETRIC)        :  P 63/M M C      

 LATTICE PARAMETERS  (ANGSTROMS AND DEGREES) - CONVENTIONAL CELL
        A           B           C        ALPHA        BETA       GAMMA
     2.29000     2.29000     3.59000    90.00000    90.00000   120.00000


 NUMBER OF IRREDUCIBLE ATOMS IN THE CONVENTIONAL CELL:    1

 INPUT COORDINATES

 ATOM AT. N.              COORDINATES
   1   4     3.333333333330E-01  6.666666666670E-01  2.500000000000E-01

 *******************************************************************************

 << INFORMATION >>: FROM NOW ON, ALL COORDINATES REFER TO THE PRIMITIVE CELL

 *******************************************************************************

 LATTICE PARAMETERS  (ANGSTROMS AND DEGREES) - PRIMITIVE CELL
       A          B          C        ALPHA      BETA     GAMMA        VOLUME
    2.29000    2.29000    3.59000    90.00000  90.00000 120.00000     16.304071

 COORDINATES OF THE EQUIVALENT ATOMS (FRACTIONAL UNITS)

 N. ATOM EQUIV AT. N.          X                  Y                  Z

   1   1   1    4 BE    3.33333333333E-01 -3.33333333333E-01  2.50000000000E-01
   2   1   2    4 BE   -3.33333333333E-01  3.33333333333E-01 -2.50000000000E-01

 NUMBER OF SYMMETRY OPERATORS         :   24
 *******************************************************************************
 * GEOMETRY EDITING - INPUT COORDINATES ARE GIVEN IN ANGSTROM         
 *******************************************************************************

 GEOMETRY NOW FULLY CONSISTENT WITH THE GROUP

 REMOVAL OF SYMMOPS WITH FINITE TRANSLATIONAL COMPONENTS
 HAS REDUCED THEIR NUMBER FROM 24 TO 12

 *******************************************************************************
 * SUPERCELL OPTION
 *******************************************************************************


        EXPANSION MATRIX OF PRIMITIVE CELL
 E1     2.000     0.000     0.000
 E2     0.000     2.000     0.000
 E3     0.000     0.000     4.000

 NUMBER OF ATOMS PER SUPERCELL    32

        DIRECT LATTICE VECTORS COMPONENTS (ANGSTROM)
 B1     3.966    -2.290     0.000
 B2     0.000     4.580     0.000
 B3     0.000     0.000    14.360

 LATTICE PARAMETERS  (ANGSTROM AND DEGREES)
       A          B          C         ALPHA     BETA     GAMMA        VOLUME
    4.58000    4.58000   14.36000    90.00000  90.00000 120.00000    260.865128


 **** ATOMS BELONGING TO THE SUPERCELL
 LABEL AT.NO.      COORDINATES (ANGSTROM AND FRACTIONAL)
     1     4    -1.3221    -0.0000     0.8975    -0.3333    -0.1667     0.0625
     2     4    -1.3221    -0.0000     4.4875    -0.3333    -0.1667     0.3125
     3     4    -1.3221    -0.0000    -6.2825    -0.3333    -0.1667    -0.4375
     4     4    -1.3221    -0.0000    -2.6925    -0.3333    -0.1667    -0.1875
     5     4    -1.3221     2.2900     0.8975    -0.3333     0.3333     0.0625
     6     4    -1.3221     2.2900     4.4875    -0.3333     0.3333     0.3125
     7     4    -1.3221     2.2900    -6.2825    -0.3333     0.3333    -0.4375
     8     4    -1.3221     2.2900    -2.6925    -0.3333     0.3333    -0.1875
     9     4     0.6611    -1.1450     0.8975     0.1667    -0.1667     0.0625
    10     4     0.6611    -1.1450     4.4875     0.1667    -0.1667     0.3125
    11     4     0.6611    -1.1450    -6.2825     0.1667    -0.1667    -0.4375
    12     4     0.6611    -1.1450    -2.6925     0.1667    -0.1667    -0.1875
    13     4     0.6611     1.1450     0.8975     0.1667     0.3333     0.0625
    14     4     0.6611     1.1450     4.4875     0.1667     0.3333     0.3125
    15     4     0.6611     1.1450    -6.2825     0.1667     0.3333    -0.4375
    16     4     0.6611     1.1450    -2.6925     0.1667     0.3333    -0.1875
    17     4    -0.6611    -1.1450    -0.8975    -0.1667    -0.3333    -0.0625
    18     4    -0.6611    -1.1450     2.6925    -0.1667    -0.3333     0.1875
    19     4    -0.6611    -1.1450     6.2825    -0.1667    -0.3333     0.4375
    20     4    -0.6611    -1.1450    -4.4875    -0.1667    -0.3333    -0.3125
    21     4    -0.6611     1.1450    -0.8975    -0.1667     0.1667    -0.0625
    22     4    -0.6611     1.1450     2.6925    -0.1667     0.1667     0.1875
    23     4    -0.6611     1.1450     6.2825    -0.1667     0.1667     0.4375
    24     4    -0.6611     1.1450    -4.4875    -0.1667     0.1667    -0.3125
    25     4     1.3221    -2.2900    -0.8975     0.3333    -0.3333    -0.0625
    26     4     1.3221    -2.2900     2.6925     0.3333    -0.3333     0.1875
    27     4     1.3221    -2.2900     6.2825     0.3333    -0.3333     0.4375
    28     4     1.3221    -2.2900    -4.4875     0.3333    -0.3333    -0.3125
    29     4     1.3221    -0.0000    -0.8975     0.3333     0.1667    -0.0625
    30     4     1.3221    -0.0000     2.6925     0.3333     0.1667     0.1875
    31     4     1.3221    -0.0000     6.2825     0.3333     0.1667     0.4375
    32     4     1.3221    -0.0000    -4.4875     0.3333     0.1667    -0.3125

 **************************** SUPERCELL GENERATED ****************************

 GCALCO - MAX INDICES DIRECT LATTICE VECTOR    22    22     6
 NO.OF VECTORS CREATED 6999 STARS  365 RMAX   143.20308 BOHR

 GEOMETRY FOR WAVE FUNCTION - DIMENSIONALITY OF THE SYSTEM    3
 (NON PERIODIC DIRECTION: LATTICE PARAMETER FORMALLY SET TO 500)
 *******************************************************************************
 LATTICE PARAMETERS (ANGSTROMS AND DEGREES) - BOHR = 0.5291772083 ANGSTROM
 PRIMITIVE CELL - CENTRING CODE 1/1 VOLUME=   260.865128 - DENSITY  1.836 g/cm^3
         A              B              C           ALPHA      BETA       GAMMA 
     4.58000000     4.58000000    14.36000000    90.000000  90.000000 120.000000
 *******************************************************************************
 ATOMS IN THE ASYMMETRIC UNIT    8 - ATOMS IN THE UNIT CELL:   32
     ATOM                 X/A                 Y/B                 Z/C    
 *******************************************************************************
      1 T   4 BE   -3.333333333333E-01 -1.666666666667E-01  6.250000000000E-02
      2 T   4 BE   -3.333333333333E-01 -1.666666666667E-01  3.125000000000E-01
      3 T   4 BE   -3.333333333333E-01 -1.666666666667E-01 -4.375000000000E-01
      4 T   4 BE   -3.333333333333E-01 -1.666666666667E-01 -1.875000000000E-01
      5 T   4 BE   -3.333333333333E-01  3.333333333333E-01  6.250000000000E-02
      6 T   4 BE   -3.333333333333E-01  3.333333333333E-01  3.125000000000E-01
      7 T   4 BE   -3.333333333333E-01  3.333333333333E-01 -4.375000000000E-01
      8 T   4 BE   -3.333333333333E-01  3.333333333333E-01 -1.875000000000E-01
      9 F   4 BE    1.666666666667E-01 -1.666666666667E-01  6.250000000000E-02
     10 F   4 BE    1.666666666667E-01 -1.666666666667E-01  3.125000000000E-01
     11 F   4 BE    1.666666666667E-01 -1.666666666667E-01 -4.375000000000E-01
     12 F   4 BE    1.666666666667E-01 -1.666666666667E-01 -1.875000000000E-01
     13 F   4 BE    1.666666666667E-01  3.333333333333E-01  6.250000000000E-02
     14 F   4 BE    1.666666666667E-01  3.333333333333E-01  3.125000000000E-01
     15 F   4 BE    1.666666666667E-01  3.333333333333E-01 -4.375000000000E-01
     16 F   4 BE    1.666666666667E-01  3.333333333333E-01 -1.875000000000E-01
     17 F   4 BE   -1.666666666667E-01 -3.333333333333E-01 -6.250000000000E-02
     18 F   4 BE   -1.666666666667E-01 -3.333333333333E-01  1.875000000000E-01
     19 F   4 BE   -1.666666666667E-01 -3.333333333333E-01  4.375000000000E-01
     20 F   4 BE   -1.666666666667E-01 -3.333333333333E-01 -3.125000000000E-01
     21 F   4 BE   -1.666666666667E-01  1.666666666667E-01 -6.250000000000E-02
     22 F   4 BE   -1.666666666667E-01  1.666666666667E-01  1.875000000000E-01
     23 F   4 BE   -1.666666666667E-01  1.666666666667E-01  4.375000000000E-01
     24 F   4 BE   -1.666666666667E-01  1.666666666667E-01 -3.125000000000E-01
     25 F   4 BE    3.333333333333E-01 -3.333333333333E-01 -6.250000000000E-02
     26 F   4 BE    3.333333333333E-01 -3.333333333333E-01  1.875000000000E-01
     27 F   4 BE    3.333333333333E-01 -3.333333333333E-01  4.375000000000E-01
     28 F   4 BE    3.333333333333E-01 -3.333333333333E-01 -3.125000000000E-01
     29 F   4 BE    3.333333333333E-01  1.666666666667E-01 -6.250000000000E-02
     30 F   4 BE    3.333333333333E-01  1.666666666667E-01  1.875000000000E-01
     31 F   4 BE    3.333333333333E-01  1.666666666667E-01  4.375000000000E-01
     32 F   4 BE    3.333333333333E-01  1.666666666667E-01 -3.125000000000E-01

 T = ATOM BELONGING TO THE ASYMMETRIC UNIT

 ****   12 SYMMOPS - TRANSLATORS IN FRACTIONAL UNITS
 **** MATRICES AND TRANSLATORS IN THE CRYSTALLOGRAPHIC REFERENCE FRAME
   V INV                    ROTATION MATRICES                   TRANSLATORS
   1   1  1.00  0.00  0.00  0.00  1.00  0.00  0.00  0.00  1.00  0.00  0.00  0.00
   2   3 -0.00 -1.00  0.00  1.00 -1.00  0.00  0.00  0.00  1.00  0.00  0.00  0.00
   3   2 -1.00  1.00  0.00 -1.00  0.00  0.00  0.00  0.00  1.00  0.00  0.00  0.00
   4   4  1.00 -1.00  0.00  0.00 -1.00  0.00  0.00  0.00 -1.00  0.00  0.00  0.00
   5   5 -1.00  0.00  0.00 -1.00  1.00  0.00  0.00  0.00 -1.00  0.00  0.00  0.00
   6   6  0.00  1.00  0.00  1.00  0.00  0.00  0.00  0.00 -1.00  0.00  0.00  0.00
   7   7 -1.00  0.00  0.00 -0.00 -1.00  0.00  0.00  0.00 -1.00  0.00  0.00  0.00
   8   9  0.00  1.00  0.00 -1.00  1.00  0.00  0.00  0.00 -1.00  0.00  0.00  0.00
   9   8  1.00 -1.00  0.00  1.00 -0.00  0.00  0.00  0.00 -1.00  0.00  0.00  0.00
  10  10 -1.00  1.00  0.00 -0.00  1.00  0.00  0.00  0.00  1.00  0.00  0.00  0.00
  11  11  1.00  0.00  0.00  1.00 -1.00  0.00  0.00  0.00  1.00  0.00  0.00  0.00
  12  12 -0.00 -1.00  0.00 -1.00 -0.00  0.00  0.00  0.00  1.00  0.00  0.00  0.00

 DIRECT LATTICE VECTORS CARTESIAN COMPONENTS (ANGSTROM)
          X                    Y                    Z
   0.396639634933E+01  -0.229000000000E+01   0.000000000000E+00
   0.000000000000E+00   0.458000000000E+01   0.000000000000E+00
   0.000000000000E+00   0.000000000000E+00   0.143600000000E+02


 CARTESIAN COORDINATES - PRIMITIVE CELL
 *******************************************************************************
 *      ATOM          X(ANGSTROM)         Y(ANGSTROM)         Z(ANGSTROM)
 *******************************************************************************
    1     4 BE   -1.322132116444E+00  1.502548640916E-16  8.975000000000E-01
    2     4 BE   -1.322132116444E+00  1.502548640916E-16  4.487500000000E+00
    3     4 BE   -1.322132116444E+00  1.502548640916E-16 -6.282500000000E+00
    4     4 BE   -1.322132116444E+00  1.502548640916E-16 -2.692500000000E+00
    5     4 BE   -1.322132116444E+00  2.290000000000E+00  8.975000000000E-01
    6     4 BE   -1.322132116444E+00  2.290000000000E+00  4.487500000000E+00
    7     4 BE   -1.322132116444E+00  2.290000000000E+00 -6.282500000000E+00
    8     4 BE   -1.322132116444E+00  2.290000000000E+00 -2.692500000000E+00
    9     4 BE    6.610660582221E-01 -1.145000000000E+00  8.975000000000E-01
   10     4 BE    6.610660582221E-01 -1.145000000000E+00  4.487500000000E+00
   11     4 BE    6.610660582221E-01 -1.145000000000E+00 -6.282500000000E+00
   12     4 BE    6.610660582221E-01 -1.145000000000E+00 -2.692500000000E+00
   13     4 BE    6.610660582221E-01  1.145000000000E+00  8.975000000000E-01
   14     4 BE    6.610660582221E-01  1.145000000000E+00  4.487500000000E+00
   15     4 BE    6.610660582221E-01  1.145000000000E+00 -6.282500000000E+00
   16     4 BE    6.610660582221E-01  1.145000000000E+00 -2.692500000000E+00
   17     4 BE   -6.610660582221E-01 -1.145000000000E+00 -8.975000000000E-01
   18     4 BE   -6.610660582221E-01 -1.145000000000E+00  2.692500000000E+00
   19     4 BE   -6.610660582221E-01 -1.145000000000E+00  6.282500000000E+00
   20     4 BE   -6.610660582221E-01 -1.145000000000E+00 -4.487500000000E+00
   21     4 BE   -6.610660582221E-01  1.145000000000E+00 -8.975000000000E-01
   22     4 BE   -6.610660582221E-01  1.145000000000E+00  2.692500000000E+00
   23     4 BE   -6.610660582221E-01  1.145000000000E+00  6.282500000000E+00
   24     4 BE   -6.610660582221E-01  1.145000000000E+00 -4.487500000000E+00
   25     4 BE    1.322132116444E+00 -2.290000000000E+00 -8.975000000000E-01
   26     4 BE    1.322132116444E+00 -2.290000000000E+00  2.692500000000E+00
   27     4 BE    1.322132116444E+00 -2.290000000000E+00  6.282500000000E+00
   28     4 BE    1.322132116444E+00 -2.290000000000E+00 -4.487500000000E+00
   29     4 BE    1.322132116444E+00 -2.869949925784E-16 -8.975000000000E-01
   30     4 BE    1.322132116444E+00 -2.869949925784E-16  2.692500000000E+00
   31     4 BE    1.322132116444E+00 -2.869949925784E-16  6.282500000000E+00
   32     4 BE    1.322132116444E+00 -2.869949925784E-16 -4.487500000000E+00
 WARNING **** CRYSTA **** TESTGEOM  DIRECTIVE - GEOMETRY EDITING COMPLETE
 TTTTTTTTTTTTTTTTTTTTTTTTTTTTTT END         TELAPSE        0.08 TCPU        0.08
 EEEEEEEEEE TERMINATION  DATE 16 09 2024 TIME 11:45:04.0
