*******************************************************************************
 *                                                                             *
 *                               CRYSTAL17                                     *
 *                      public : 1.0.2 - March 1st, 2018                       *
 *                       HTTP://WWW.CRYSTAL.UNITO.IT                           *
 *                                                                             *
 *                              MAIN AUTHORS                                   *
 *                                                                             *
 *  R. DOVESI(1,11), V.R. SAUNDERS(2), C. ROETTI(1,11), R. ORLANDO(1,11),      *
 *  C.M. ZICOVICH-WILSON(1,3), F. PASCALE(4), B. CIVALLERI(1,11),              *
 *  K. DOLL(5), N.M. HARRISON(2,6), I.J. BUSH(7), Ph. D'ARCO(8),               *
 *  M. LLUNELL(9), M. CAUSA'(10), Y. NOEL(8), L. MASCHIO(1,11), A. ERBA(1,11)  *
 *  M. RE'RAT(14), S. CASASSA(1,11)                                            *
 *                                                                             *
 *        CONTRIBUTIONS TO THE CODE HAVE ALSO BEEN GIVEN BY                    *
 *                                                                             *
 *  M. FERRABONE(1,11), M. DE LA PIERRE(1,11), M. FERRERO(1,11),               *
 *  J. BAIMA(1,11), E. ALBANESE(1,11), M.F. PEINTINGER(12), R. BAST(13),       *
 *  B. KIRTMAN(15), V. LACIVITA(1,11), R. DEMICHELIS(1,16)                     *
 *  G. BRANDEBURG(17), S. SALUSTRO(1,11), G. SANSONE(1,11)                     *
 *  M.T. RUGGIERO(18)                                                          *
 *                                                                             *
 * (1) THEORETICAL CHEMISTRY GROUP - UNIVERSITA' DI TORINO - TORINO (ITALY)    *
 * (2) COMPUTATIONAL SCIENCE & ENGINEERING DEPARTMENT - STFC DARESBURY (UK)    *
 * (3) UNIVERSIDAD AUTONOMA DEL ESTADO DE MORELOS - CUERNAVACA (MEXICO)        *
 * (4) UNIVERSITE' DE LORRAINE - NANCY (FRANCE)                                *
 * (5) UNIVERSITAET STUTTGART- STUTTGART (GERMANY)                             *
 * (6) IMPERIAL COLLEGE - LONDON (UK)                                          *
 * (7) OXFORD E-RESEARCH CENTRE - OXFORD (UK)                                  *
 * (8) UPMC - SORBONNE UNIVERSITES - PARIS (FRANCE)                            *
 * (9) UNIVERSIDAD DE BARCELONA - BARCELONA (SPAIN)                            *
 *(10) UNIVERSITA' DI NAPOLI "FEDERICO II" - NAPOLI (ITALY)                    *
 *(11) NIS - NANOSTRUCTURED INTERFACES AND SURFACES - TORINO (ITALY)           *
 *(12) MPI FUER CHEMISCHE ENERGIEKONVERSION - MUELHEIM AN DER RUHR (GERMANY)   *
 *(13) UNIVERSITY OF TROMSO - TROMSO (NORWAY)                                  *
 *(14) UNIVERSITE' DE PAU ET DES PAYS DE L'ADOUR - PAU (FRANCE)                *
 *(15) UNIVERSITY OF CALIFORNIA SANTA BARBARA - SANTA BARBARA (USA)            *
 *(16) CURTIN UNIVERSITY - PERTH (AUSTRALIA)                                   *
 *(17) UNIVERSITY COLLEGE LONDON - LONDON (UK)                                 *
 *(18) CAMBRIDGE UNIVERSITY - CAMBRIDGE (UK)                                   *
 *                                                                             *
 *******************************************************************************
 EEEEEEEEEE STARTING  DATE 16 03 2018 TIME 12:10:09.8

 *******************************************************************************
 Bi2Te3                                                                          
 CRYSTAL - PROPERTIES - TYPE OF CALCULATION :  RESTRICTED CLOSED SHELL
 *******************************************************************************
 KOHN-SHAM HAMILTONIAN

 (EXCHANGE)[CORRELATION] FUNCTIONAL:(PERDEW-BURKE-ERNZERHOF)[PERDEW-BURKE-ERNZERHOF]


 DIRECT LATTICE VECTOR COMPONENTS (ANGSTROM)
         2.53745    0.00000   10.14667
        -1.26873    2.19750   10.14667
        -1.26873   -2.19750   10.14667

 LATTICE PARAMETERS  (ANGSTROM AND DEGREES) - PRIMITIVE CELL
       A          B          C         ALPHA      BETA     GAMMA        VOLUME
   10.45914   10.45914   10.45914     24.2568   24.2568   24.2568     169.73515
 *******************************************************************************
 N. OF ATOMS PER CELL         5 COULOMB OVERLAP TOL          (T1) 10**   -8
 NUMBER OF SHELLS            34 COULOMB PENETRATION TOL      (T2) 10**   -8
 NUMBER OF AO                80 EXCHANGE OVERLAP TOL         (T3) 10**   20
 N. OF ELECTRONS PER CELL    28 EXCHANGE PSEUDO OVP (F(G))   (T4) 10**   20
 CORE ELECTRONS PER CELL      0 EXCHANGE PSEUDO OVP (P(G))   (T5) 10**   20
 N. OF SYMMETRY OPERATORS    12 POLE ORDER IN MONO ZONE                   4
 CORE  PSEUDO POTENTIAL         TOL. ON PSEUDO              (TP) 10**- 6
 *******************************************************************************
   ATOM N.AT.  SHELL    X(A)      Y(A)      Z(A)      EXAD       N.ELECT.
 *******************************************************************************
    1  283 BI    8    -2.537     0.000     2.045   1.340E-01       5.337
    2  283 BI    8    -1.269    -2.198    -2.045   1.340E-01       5.337
    3  252 TE    6     0.000     0.000     0.000   1.397E-01       5.805
    4  252 TE    6    -2.537     0.000    -3.763   1.397E-01       5.760
    5  252 TE    6    -1.269    -2.198     3.763   1.397E-01       5.760
 *******************************************************************************
 DE(K)                   0.000E+00  ENERGY LEVEL SHIFTING        0.00000
 TOTAL ENERGY -3.5413734866421E+01  CONVERGENCE ON ENER       -6.483E-09
 KIN. ENERGY   1.1148167004875E+01  VIR. COEFF.           5.79925266E-01
 N. OF SCF CYCLES                8  FERMI ENERGY              -0.159E+00
 WEIGHT OF F(I) IN F(I+1)      30
 SHRINK. FACT.(MONKH.)    10 10 10  SHRINKING FACTOR(GILAT NET)       20
 NUMBER OF K POINTS IN THE IBZ 116  CELL VOLUME (A.U.)       1145.429572
 *******************************************************************************

 GCALCO - MAX INDICES DIRECT LATTICE VECTOR    14    14    14
 NO.OF VECTORS CREATED 6999 STARS  509 RMAX   134.58349 BOHR
 TTTTTTTTTTTTTTTTTTTTTTTTTTTTTT gordsh1     TELAPSE        0.08 TCPU        0.04

 MATRIX SIZE: P(G)   62750, F(G)   31796, P(G) IRR    5029, F(G) IRR    5029
 MAX G-VECTOR INDEX FOR 1- AND 2-ELECTRON INTEGRALS  89


 CAPPA:IS1 10;IS2 10;IS3 10; K PTS MONK NET 116; SYMMOPS:K SPACE  12;G SPACE  12


 CAPPA:IS1 48;IS2 48;IS3 48; K PTS MONK NET9825; SYMMOPS:K SPACE  12;G SPACE  12

 *******************************************************************************
 RESTART WITH NEW K POINTS NET
 *******************************************************************************
 POINTS IN THE IBZ                9825 POINTS(GILAT NET)              9825
 SHRINK FACTORS(MONK.)        48 48 48 SHRINK FACTOR(GILAT)             48
 *******************************************************************************
 *** K POINTS COORDINATES (OBLIQUE COORDINATES IN UNITS OF IS = 48)
   1-R(  0  0  0)   2-C(  1  0  0)   3-C(  2  0  0)   4-C(  3  0  0)
   5-C(  4  0  0)   6-C(  5  0  0)   7-C(  6  0  0)   8-C(  7  0  0)
   9-C(  8  0  0)  10-C(  9  0  0)  11-C( 10  0  0)  12-C( 11  0  0)
  13-C( 12  0  0)  14-C( 13  0  0)  15-C( 14  0  0)  16-C( 15  0  0)
  17-C( 16  0  0)  18-C( 17  0  0)  19-C( 18  0  0)  20-C( 19  0  0)
  21-C( 20  0  0)  22-C( 21  0  0)  23-C( 22  0  0)  24-C( 23  0  0)
  25-R( 24  0  0)  26-C(  1  1  0)  27-C(  2  1  0)  28-C(  3  1  0)
  29-C(  4  1  0)  30-C(  5  1  0)  31-C(  6  1  0)  32-C(  7  1  0)
  33-C(  8  1  0)  34-C(  9  1  0)  35-C( 10  1  0)  36-C( 11  1  0)
  37-C( 12  1  0)  38-C( 13  1  0)  39-C( 14  1  0)  40-C( 15  1  0)
  41-C( 16  1  0)  42-C( 17  1  0)  43-C( 18  1  0)  44-C( 19  1  0)
  45-C( 20  1  0)  46-C( 21  1  0)  47-C( 22  1  0)  48-C( 23  1  0)
  49-C( 24  1  0)  50-C( 25  1  0)  51-C( 26  1  0)  52-C( 27  1  0)
  53-C( 28  1  0)  54-C( 29  1  0)  55-C( 30  1  0)  56-C( 31  1  0)
  57-C( 32  1  0)  58-C( 33  1  0)  59-C( 34  1  0)  60-C( 35  1  0)
  61-C( 36  1  0)  62-C( 37  1  0)  63-C( 38  1  0)  64-C( 39  1  0)
  65-C( 40  1  0)  66-C( 41  1  0)  67-C( 42  1  0)  68-C( 43  1  0)
  69-C( 44  1  0)  70-C( 45  1  0)  71-C( 46  1  0)  72-C( 47  1  0)
  73-C(  2  2  0)  74-C(  3  2  0)  75-C(  4  2  0)  76-C(  5  2  0)
  77-C(  6  2  0)  78-C(  7  2  0)  79-C(  8  2  0)  80-C(  9  2  0)
  81-C( 10  2  0)  82-C( 11  2  0)  83-C( 12  2  0)  84-C( 13  2  0)
  85-C( 14  2  0)  86-C( 15  2  0)  87-C( 16  2  0)  88-C( 17  2  0)
  89-C( 18  2  0)  90-C( 19  2  0)  91-C( 20  2  0)  92-C( 21  2  0)
  93-C( 22  2  0)  94-C( 23  2  0)  95-C( 24  2  0)  96-C( 25  2  0)
  97-C( 26  2  0)  98-C( 27  2  0)  99-C( 28  2  0) 100-C( 29  2  0)
 101-C( 30  2  0) 102-C( 31  2  0) 103-C( 32  2  0) 104-C( 33  2  0)
 105-C( 34  2  0) 106-C( 35  2  0) 107-C( 36  2  0) 108-C( 37  2  0)
 109-C( 38  2  0) 110-C( 39  2  0) 111-C( 40  2  0) 112-C( 41  2  0)
 113-C( 42  2  0) 114-C( 43  2  0) 115-C( 44  2  0) 116-C( 45  2  0)
 117-C( 46  2  0) 118-C(  3  3  0) 119-C(  4  3  0) 120-C(  5  3  0)
 121-C(  6  3  0) 122-C(  7  3  0) 123-C(  8  3  0) 124-C(  9  3  0)
 125-C( 10  3  0) 126-C( 11  3  0) 127-C( 12  3  0) 128-C( 13  3  0)
 129-C( 14  3  0) 130-C( 15  3  0) 131-C( 16  3  0) 132-C( 17  3  0)
 133-C( 18  3  0) 134-C( 19  3  0) 135-C( 20  3  0) 136-C( 21  3  0)
 137-C( 22  3  0) 138-C( 23  3  0) 139-C( 24  3  0) 140-C( 25  3  0)
 141-C( 26  3  0) 142-C( 27  3  0) 143-C( 28  3  0) 144-C( 29  3  0)
 145-C( 30  3  0) 146-C( 31  3  0) 147-C( 32  3  0) 148-C( 33  3  0)
 149-C( 34  3  0) 150-C( 35  3  0) 151-C( 36  3  0) 152-C( 37  3  0)
 153-C( 38  3  0) 154-C( 39  3  0) 155-C( 40  3  0) 156-C( 41  3  0)
 157-C( 42  3  0) 158-C( 43  3  0) 159-C( 44  3  0) 160-C( 45  3  0)
 161-C(  4  4  0) 162-C(  5  4  0) 163-C(  6  4  0) 164-C(  7  4  0)
 165-C(  8  4  0) 166-C(  9  4  0) 167-C( 10  4  0) 168-C( 11  4  0)
 169-C( 12  4  0) 170-C( 13  4  0) 171-C( 14  4  0) 172-C( 15  4  0)
 173-C( 16  4  0) 174-C( 17  4  0) 175-C( 18  4  0) 176-C( 19  4  0)
 177-C( 20  4  0) 178-C( 21  4  0) 179-C( 22  4  0) 180-C( 23  4  0)
 181-C( 24  4  0) 182-C( 25  4  0) 183-C( 26  4  0) 184-C( 27  4  0)
 185-C( 28  4  0) 186-C( 29  4  0) 187-C( 30  4  0) 188-C( 31  4  0)
 189-C( 32  4  0) 190-C( 33  4  0) 191-C( 34  4  0) 192-C( 35  4  0)
 193-C( 36  4  0) 194-C( 37  4  0) 195-C( 38  4  0) 196-C( 39  4  0)
 197-C( 40  4  0) 198-C( 41  4  0) 199-C( 42  4  0) 200-C( 43  4  0)
 201-C( 44  4  0) 202-C(  5  5  0) 203-C(  6  5  0) 204-C(  7  5  0)
 205-C(  8  5  0) 206-C(  9  5  0) 207-C( 10  5  0) 208-C( 11  5  0)
 209-C( 12  5  0) 210-C( 13  5  0) 211-C( 14  5  0) 212-C( 15  5  0)
 213-C( 16  5  0) 214-C( 17  5  0) 215-C( 18  5  0) 216-C( 19  5  0)
 217-C( 20  5  0) 218-C( 21  5  0) 219-C( 22  5  0) 220-C( 23  5  0)
 221-C( 24  5  0) 222-C( 25  5  0) 223-C( 26  5  0) 224-C( 27  5  0)
 225-C( 28  5  0) 226-C( 29  5  0) 227-C( 30  5  0) 228-C( 31  5  0)
 229-C( 32  5  0) 230-C( 33  5  0) 231-C( 34  5  0) 232-C( 35  5  0)
 233-C( 36  5  0) 234-C( 37  5  0) 235-C( 38  5  0) 236-C( 39  5  0)
 237-C( 40  5  0) 238-C( 41  5  0) 239-C( 42  5  0) 240-C( 43  5  0)
 241-C(  6  6  0) 242-C(  7  6  0) 243-C(  8  6  0) 244-C(  9  6  0)
 245-C( 10  6  0) 246-C( 11  6  0) 247-C( 12  6  0) 248-C( 13  6  0)
 249-C( 14  6  0) 250-C( 15  6  0) 251-C( 16  6  0) 252-C( 17  6  0)
 253-C( 18  6  0) 254-C( 19  6  0) 255-C( 20  6  0) 256-C( 21  6  0)
 257-C( 22  6  0) 258-C( 23  6  0) 259-C( 24  6  0) 260-C( 25  6  0)
 261-C( 26  6  0) 262-C( 27  6  0) 263-C( 28  6  0) 264-C( 29  6  0)
 265-C( 30  6  0) 266-C( 31  6  0) 267-C( 32  6  0) 268-C( 33  6  0)
 269-C( 34  6  0) 270-C( 35  6  0) 271-C( 36  6  0) 272-C( 37  6  0)
 273-C( 38  6  0) 274-C( 39  6  0) 275-C( 40  6  0) 276-C( 41  6  0)
 277-C( 42  6  0) 278-C(  7  7  0) 279-C(  8  7  0) 280-C(  9  7  0)
 281-C( 10  7  0) 282-C( 11  7  0) 283-C( 12  7  0) 284-C( 13  7  0)
 285-C( 14  7  0) 286-C( 15  7  0) 287-C( 16  7  0) 288-C( 17  7  0)
 289-C( 18  7  0) 290-C( 19  7  0) 291-C( 20  7  0) 292-C( 21  7  0)
 293-C( 22  7  0) 294-C( 23  7  0) 295-C( 24  7  0) 296-C( 25  7  0)
 297-C( 26  7  0) 298-C( 27  7  0) 299-C( 28  7  0) 300-C( 29  7  0)
 301-C( 30  7  0) 302-C( 31  7  0) 303-C( 32  7  0) 304-C( 33  7  0)
 305-C( 34  7  0) 306-C( 35  7  0) 307-C( 36  7  0) 308-C( 37  7  0)
 309-C( 38  7  0) 310-C( 39  7  0) 311-C( 40  7  0) 312-C( 41  7  0)
 313-C(  8  8  0) 314-C(  9  8  0) 315-C( 10  8  0) 316-C( 11  8  0)
 317-C( 12  8  0) 318-C( 13  8  0) 319-C( 14  8  0) 320-C( 15  8  0)
 321-C( 16  8  0) 322-C( 17  8  0) 323-C( 18  8  0) 324-C( 19  8  0)
 325-C( 20  8  0) 326-C( 21  8  0) 327-C( 22  8  0) 328-C( 23  8  0)
 329-C( 24  8  0) 330-C( 25  8  0) 331-C( 26  8  0) 332-C( 27  8  0)
 333-C( 28  8  0) 334-C( 29  8  0) 335-C( 30  8  0) 336-C( 31  8  0)
 337-C( 32  8  0) 338-C( 33  8  0) 339-C( 34  8  0) 340-C( 35  8  0)
 341-C( 36  8  0) 342-C( 37  8  0) 343-C( 38  8  0) 344-C( 39  8  0)
 345-C( 40  8  0) 346-C(  9  9  0) 347-C( 10  9  0) 348-C( 11  9  0)
 349-C( 12  9  0) 350-C( 13  9  0) 351-C( 14  9  0) 352-C( 15  9  0)
 353-C( 16  9  0) 354-C( 17  9  0) 355-C( 18  9  0) 356-C( 19  9  0)
 357-C( 20  9  0) 358-C( 21  9  0) 359-C( 22  9  0) 360-C( 23  9  0)
 361-C( 24  9  0) 362-C( 25  9  0) 363-C( 26  9  0) 364-C( 27  9  0)
 365-C( 28  9  0) 366-C( 29  9  0) 367-C( 30  9  0) 368-C( 31  9  0)
 369-C( 32  9  0) 370-C( 33  9  0) 371-C( 34  9  0) 372-C( 35  9  0)
 373-C( 36  9  0) 374-C( 37  9  0) 375-C( 38  9  0) 376-C( 39  9  0)
 377-C( 10 10  0) 378-C( 11 10  0) 379-C( 12 10  0) 380-C( 13 10  0)
 381-C( 14 10  0) 382-C( 15 10  0) 383-C( 16 10  0) 384-C( 17 10  0)
 385-C( 18 10  0) 386-C( 19 10  0) 387-C( 20 10  0) 388-C( 21 10  0)
 389-C( 22 10  0) 390-C( 23 10  0) 391-C( 24 10  0) 392-C( 25 10  0)
 393-C( 26 10  0) 394-C( 27 10  0) 395-C( 28 10  0) 396-C( 29 10  0)
 397-C( 30 10  0) 398-C( 31 10  0) 399-C( 32 10  0) 400-C( 33 10  0)
 401-C( 34 10  0) 402-C( 35 10  0) 403-C( 36 10  0) 404-C( 37 10  0)
 405-C( 38 10  0) 406-C( 11 11  0) 407-C( 12 11  0) 408-C( 13 11  0)
 409-C( 14 11  0) 410-C( 15 11  0) 411-C( 16 11  0) 412-C( 17 11  0)
 413-C( 18 11  0) 414-C( 19 11  0) 415-C( 20 11  0) 416-C( 21 11  0)
 417-C( 22 11  0) 418-C( 23 11  0) 419-C( 24 11  0) 420-C( 25 11  0)
 421-C( 26 11  0) 422-C( 27 11  0) 423-C( 28 11  0) 424-C( 29 11  0)
 425-C( 30 11  0) 426-C( 31 11  0) 427-C( 32 11  0) 428-C( 33 11  0)
 429-C( 34 11  0) 430-C( 35 11  0) 431-C( 36 11  0) 432-C( 37 11  0)
 433-C( 12 12  0) 434-C( 13 12  0) 435-C( 14 12  0) 436-C( 15 12  0)
 437-C( 16 12  0) 438-C( 17 12  0) 439-C( 18 12  0) 440-C( 19 12  0)
 441-C( 20 12  0) 442-C( 21 12  0) 443-C( 22 12  0) 444-C( 23 12  0)
 445-C( 24 12  0) 446-C( 25 12  0) 447-C( 26 12  0) 448-C( 27 12  0)
 449-C( 28 12  0) 450-C( 29 12  0) 451-C( 30 12  0) 452-C( 31 12  0)
 453-C( 32 12  0) 454-C( 33 12  0) 455-C( 34 12  0) 456-C( 35 12  0)
 457-C( 36 12  0) 458-C( 13 13  0) 459-C( 14 13  0) 460-C( 15 13  0)
 461-C( 16 13  0) 462-C( 17 13  0) 463-C( 18 13  0) 464-C( 19 13  0)
 465-C( 20 13  0) 466-C( 21 13  0) 467-C( 22 13  0) 468-C( 23 13  0)
 469-C( 24 13  0) 470-C( 25 13  0) 471-C( 26 13  0) 472-C( 27 13  0)
 473-C( 28 13  0) 474-C( 29 13  0) 475-C( 30 13  0) 476-C( 31 13  0)
 477-C( 32 13  0) 478-C( 33 13  0) 479-C( 34 13  0) 480-C( 35 13  0)
 481-C( 14 14  0) 482-C( 15 14  0) 483-C( 16 14  0) 484-C( 17 14  0)
 485-C( 18 14  0) 486-C( 19 14  0) 487-C( 20 14  0) 488-C( 21 14  0)
 489-C( 22 14  0) 490-C( 23 14  0) 491-C( 24 14  0) 492-C( 25 14  0)
 493-C( 26 14  0) 494-C( 27 14  0) 495-C( 28 14  0) 496-C( 29 14  0)
 497-C( 30 14  0) 498-C( 31 14  0) 499-C( 32 14  0) 500-C( 33 14  0)
 501-C( 34 14  0) 502-C( 15 15  0) 503-C( 16 15  0) 504-C( 17 15  0)
 505-C( 18 15  0) 506-C( 19 15  0) 507-C( 20 15  0) 508-C( 21 15  0)
 509-C( 22 15  0) 510-C( 23 15  0) 511-C( 24 15  0) 512-C( 25 15  0)
 513-C( 26 15  0) 514-C( 27 15  0) 515-C( 28 15  0) 516-C( 29 15  0)
 517-C( 30 15  0) 518-C( 31 15  0) 519-C( 32 15  0) 520-C( 33 15  0)
 521-C( 16 16  0) 522-C( 17 16  0) 523-C( 18 16  0) 524-C( 19 16  0)
 525-C( 20 16  0) 526-C( 21 16  0) 527-C( 22 16  0) 528-C( 23 16  0)
 529-C( 24 16  0) 530-C( 25 16  0) 531-C( 26 16  0) 532-C( 27 16  0)
 533-C( 28 16  0) 534-C( 29 16  0) 535-C( 30 16  0) 536-C( 31 16  0)
 537-C( 32 16  0) 538-C( 17 17  0) 539-C( 18 17  0) 540-C( 19 17  0)
 541-C( 20 17  0) 542-C( 21 17  0) 543-C( 22 17  0) 544-C( 23 17  0)
 545-C( 24 17  0) 546-C( 25 17  0) 547-C( 26 17  0) 548-C( 27 17  0)
 549-C( 28 17  0) 550-C( 29 17  0) 551-C( 30 17  0) 552-C( 31 17  0)
 553-C( 18 18  0) 554-C( 19 18  0) 555-C( 20 18  0) 556-C( 21 18  0)
 557-C( 22 18  0) 558-C( 23 18  0) 559-C( 24 18  0) 560-C( 25 18  0)
 561-C( 26 18  0) 562-C( 27 18  0) 563-C( 28 18  0) 564-C( 29 18  0)
 565-C( 30 18  0) 566-C( 19 19  0) 567-C( 20 19  0) 568-C( 21 19  0)
 569-C( 22 19  0) 570-C( 23 19  0) 571-C( 24 19  0) 572-C( 25 19  0)
 573-C( 26 19  0) 574-C( 27 19  0) 575-C( 28 19  0) 576-C( 29 19  0)
 577-C( 20 20  0) 578-C( 21 20  0) 579-C( 22 20  0) 580-C( 23 20  0)
 581-C( 24 20  0) 582-C( 25 20  0) 583-C( 26 20  0) 584-C( 27 20  0)
 585-C( 28 20  0) 586-C( 21 21  0) 587-C( 22 21  0) 588-C( 23 21  0)
 589-C( 24 21  0) 590-C( 25 21  0) 591-C( 26 21  0) 592-C( 27 21  0)
 593-C( 22 22  0) 594-C( 23 22  0) 595-C( 24 22  0) 596-C( 25 22  0)
 597-C( 26 22  0) 598-C( 23 23  0) 599-C( 24 23  0) 600-C( 25 23  0)
 601-R( 24 24  0) 602-C(  1  1  1) 603-C(  2  1  1) 604-C(  3  1  1)
 605-C(  4  1  1) 606-C(  5  1  1) 607-C(  6  1  1) 608-C(  7  1  1)
 609-C(  8  1  1) 610-C(  9  1  1) 611-C( 10  1  1) 612-C( 11  1  1)
 613-C( 12  1  1) 614-C( 13  1  1) 615-C( 14  1  1) 616-C( 15  1  1)
 617-C( 16  1  1) 618-C( 17  1  1) 619-C( 18  1  1) 620-C( 19  1  1)
 621-C( 20  1  1) 622-C( 21  1  1) 623-C( 22  1  1) 624-C( 23  1  1)
 625-C( 24  1  1) 626-C( 25  1  1) 627-C( 26  1  1) 628-C( 27  1  1)
 629-C( 28  1  1) 630-C( 29  1  1) 631-C( 30  1  1) 632-C( 31  1  1)
 633-C( 32  1  1) 634-C( 33  1  1) 635-C( 34  1  1) 636-C( 35  1  1)
 637-C( 36  1  1) 638-C( 37  1  1) 639-C( 38  1  1) 640-C( 39  1  1)
 641-C( 40  1  1) 642-C( 41  1  1) 643-C( 42  1  1) 644-C( 43  1  1)
 645-C( 44  1  1) 646-C( 45  1  1) 647-C( 46  1  1) 648-C( 47  1  1)
 649-C(  2  2  1) 650-C(  3  2  1) 651-C(  4  2  1) 652-C(  5  2  1)
 653-C(  6  2  1) 654-C(  7  2  1) 655-C(  8  2  1) 656-C(  9  2  1)
 657-C( 10  2  1) 658-C( 11  2  1) 659-C( 12  2  1) 660-C( 13  2  1)
 661-C( 14  2  1) 662-C( 15  2  1) 663-C( 16  2  1) 664-C( 17  2  1)
 665-C( 18  2  1) 666-C( 19  2  1) 667-C( 20  2  1) 668-C( 21  2  1)
 669-C( 22  2  1) 670-C( 23  2  1) 671-C( 24  2  1) 672-C( 25  2  1)
 673-C( 26  2  1) 674-C( 27  2  1) 675-C( 28  2  1) 676-C( 29  2  1)
 677-C( 30  2  1) 678-C( 31  2  1) 679-C( 32  2  1) 680-C( 33  2  1)
 681-C( 34  2  1) 682-C( 35  2  1) 683-C( 36  2  1) 684-C( 37  2  1)
 685-C( 38  2  1) 686-C( 39  2  1) 687-C( 40  2  1) 688-C( 41  2  1)
 689-C( 42  2  1) 690-C( 43  2  1) 691-C( 44  2  1) 692-C( 45  2  1)
 693-C( 46  2  1) 694-C( 47  2  1) 695-C(  3  3  1) 696-C(  4  3  1)
 697-C(  5  3  1) 698-C(  6  3  1) 699-C(  7  3  1) 700-C(  8  3  1)
 701-C(  9  3  1) 702-C( 10  3  1) 703-C( 11  3  1) 704-C( 12  3  1)
 705-C( 13  3  1) 706-C( 14  3  1) 707-C( 15  3  1) 708-C( 16  3  1)
 709-C( 17  3  1) 710-C( 18  3  1) 711-C( 19  3  1) 712-C( 20  3  1)
 713-C( 21  3  1) 714-C( 22  3  1) 715-C( 23  3  1) 716-C( 24  3  1)
 717-C( 25  3  1) 718-C( 26  3  1) 719-C( 27  3  1) 720-C( 28  3  1)
 721-C( 29  3  1) 722-C( 30  3  1) 723-C( 31  3  1) 724-C( 32  3  1)
 725-C( 33  3  1) 726-C( 34  3  1) 727-C( 35  3  1) 728-C( 36  3  1)
 729-C( 37  3  1) 730-C( 38  3  1) 731-C( 39  3  1) 732-C( 40  3  1)
 733-C( 41  3  1) 734-C( 42  3  1) 735-C( 43  3  1) 736-C( 44  3  1)
 737-C( 45  3  1) 738-C( 46  3  1) 739-C( 47  3  1) 740-C(  4  4  1)
 741-C(  5  4  1) 742-C(  6  4  1) 743-C(  7  4  1) 744-C(  8  4  1)
 745-C(  9  4  1) 746-C( 10  4  1) 747-C( 11  4  1) 748-C( 12  4  1)
 749-C( 13  4  1) 750-C( 14  4  1) 751-C( 15  4  1) 752-C( 16  4  1)
 753-C( 17  4  1) 754-C( 18  4  1) 755-C( 19  4  1) 756-C( 20  4  1)
 757-C( 21  4  1) 758-C( 22  4  1) 759-C( 23  4  1) 760-C( 24  4  1)
 761-C( 25  4  1) 762-C( 26  4  1) 763-C( 27  4  1) 764-C( 28  4  1)
 765-C( 29  4  1) 766-C( 30  4  1) 767-C( 31  4  1) 768-C( 32  4  1)
 769-C( 33  4  1) 770-C( 34  4  1) 771-C( 35  4  1) 772-C( 36  4  1)
 773-C( 37  4  1) 774-C( 38  4  1) 775-C( 39  4  1) 776-C( 40  4  1)
 777-C( 41  4  1) 778-C( 42  4  1) 779-C( 43  4  1) 780-C( 44  4  1)
 781-C( 45  4  1) 782-C( 46  4  1) 783-C( 47  4  1) 784-C(  5  5  1)
 785-C(  6  5  1) 786-C(  7  5  1) 787-C(  8  5  1) 788-C(  9  5  1)
 789-C( 10  5  1) 790-C( 11  5  1) 791-C( 12  5  1) 792-C( 13  5  1)
 793-C( 14  5  1) 794-C( 15  5  1) 795-C( 16  5  1) 796-C( 17  5  1)
 797-C( 18  5  1) 798-C( 19  5  1) 799-C( 20  5  1) 800-C( 21  5  1)
 801-C( 22  5  1) 802-C( 23  5  1) 803-C( 24  5  1) 804-C( 25  5  1)
 805-C( 26  5  1) 806-C( 27  5  1) 807-C( 28  5  1) 808-C( 29  5  1)
 809-C( 30  5  1) 810-C( 31  5  1) 811-C( 32  5  1) 812-C( 33  5  1)
 813-C( 34  5  1) 814-C( 35  5  1) 815-C( 36  5  1) 816-C( 37  5  1)
 817-C( 38  5  1) 818-C( 39  5  1) 819-C( 40  5  1) 820-C( 41  5  1)
 821-C( 42  5  1) 822-C( 43  5  1) 823-C( 44  5  1) 824-C( 45  5  1)
 825-C( 46  5  1) 826-C( 47  5  1) 827-C(  6  6  1) 828-C(  7  6  1)
 829-C(  8  6  1) 830-C(  9  6  1) 831-C( 10  6  1) 832-C( 11  6  1)
 833-C( 12  6  1) 834-C( 13  6  1) 835-C( 14  6  1) 836-C( 15  6  1)
 837-C( 16  6  1) 838-C( 17  6  1) 839-C( 18  6  1) 840-C( 19  6  1)
 841-C( 20  6  1) 842-C( 21  6  1) 843-C( 22  6  1) 844-C( 23  6  1)
 845-C( 24  6  1) 846-C( 25  6  1) 847-C( 26  6  1) 848-C( 27  6  1)
 849-C( 28  6  1) 850-C( 29  6  1) 851-C( 30  6  1) 852-C( 31  6  1)
 853-C( 32  6  1) 854-C( 33  6  1) 855-C( 34  6  1) 856-C( 35  6  1)
 857-C( 36  6  1) 858-C( 37  6  1) 859-C( 38  6  1) 860-C( 39  6  1)
 861-C( 40  6  1) 862-C( 41  6  1) 863-C( 42  6  1) 864-C( 43  6  1)
 865-C( 44  6  1) 866-C( 45  6  1) 867-C( 46  6  1) 868-C( 47  6  1)
 869-C(  7  7  1) 870-C(  8  7  1) 871-C(  9  7  1) 872-C( 10  7  1)
 873-C( 11  7  1) 874-C( 12  7  1) 875-C( 13  7  1) 876-C( 14  7  1)
 877-C( 15  7  1) 878-C( 16  7  1) 879-C( 17  7  1) 880-C( 18  7  1)
 881-C( 19  7  1) 882-C( 20  7  1) 883-C( 21  7  1) 884-C( 22  7  1)
 885-C( 23  7  1) 886-C( 24  7  1) 887-C( 25  7  1) 888-C( 26  7  1)
 889-C( 27  7  1) 890-C( 28  7  1) 891-C( 29  7  1) 892-C( 30  7  1)
 893-C( 31  7  1) 894-C( 32  7  1) 895-C( 33  7  1) 896-C( 34  7  1)
 897-C( 35  7  1) 898-C( 36  7  1) 899-C( 37  7  1) 900-C( 38  7  1)
 901-C( 39  7  1) 902-C( 40  7  1) 903-C( 41  7  1) 904-C( 42  7  1)
 905-C( 43  7  1) 906-C( 44  7  1) 907-C( 45  7  1) 908-C( 46  7  1)
 909-C( 47  7  1) 910-C(  8  8  1) 911-C(  9  8  1) 912-C( 10  8  1)
 913-C( 11  8  1) 914-C( 12  8  1) 915-C( 13  8  1) 916-C( 14  8  1)
 917-C( 15  8  1) 918-C( 16  8  1) 919-C( 17  8  1) 920-C( 18  8  1)
 921-C( 19  8  1) 922-C( 20  8  1) 923-C( 21  8  1) 924-C( 22  8  1)
 925-C( 23  8  1) 926-C( 24  8  1) 927-C( 25  8  1) 928-C( 26  8  1)
 929-C( 27  8  1) 930-C( 28  8  1) 931-C( 29  8  1) 932-C( 30  8  1)
 933-C( 31  8  1) 934-C( 32  8  1) 935-C( 33  8  1) 936-C( 34  8  1)
 937-C( 35  8  1) 938-C( 36  8  1) 939-C( 37  8  1) 940-C( 38  8  1)
 941-C( 39  8  1) 942-C( 40  8  1) 943-C( 41  8  1) 944-C( 42  8  1)
 945-C( 43  8  1) 946-C( 44  8  1) 947-C( 45  8  1) 948-C( 46  8  1)
 949-C( 47  8  1) 950-C(  9  9  1) 951-C( 10  9  1) 952-C( 11  9  1)
 953-C( 12  9  1) 954-C( 13  9  1) 955-C( 14  9  1) 956-C( 15  9  1)
 957-C( 16  9  1) 958-C( 17  9  1) 959-C( 18  9  1) 960-C( 19  9  1)
 961-C( 20  9  1) 962-C( 21  9  1) 963-C( 22  9  1) 964-C( 23  9  1)
 965-C( 24  9  1) 966-C( 25  9  1) 967-C( 26  9  1) 968-C( 27  9  1)
 969-C( 28  9  1) 970-C( 29  9  1) 971-C( 30  9  1) 972-C( 31  9  1)
 973-C( 32  9  1) 974-C( 33  9  1) 975-C( 34  9  1) 976-C( 35  9  1)
 977-C( 36  9  1) 978-C( 37  9  1) 979-C( 38  9  1) 980-C( 39  9  1)
 981-C( 40  9  1) 982-C( 41  9  1) 983-C( 42  9  1) 984-C( 43  9  1)
 985-C( 44  9  1) 986-C( 45  9  1) 987-C( 46  9  1) 988-C( 47  9  1)
 989-C( 10 10  1) 990-C( 11 10  1) 991-C( 12 10  1) 992-C( 13 10  1)
 993-C( 14 10  1) 994-C( 15 10  1) 995-C( 16 10  1) 996-C( 17 10  1)
 997-C( 18 10  1) 998-C( 19 10  1) 999-C( 20 10  1)1000-C( 21 10  1)
1001-C( 22 10  1)1002-C( 23 10  1)1003-C( 24 10  1)1004-C( 25 10  1)
1005-C( 26 10  1)1006-C( 27 10  1)1007-C( 28 10  1)1008-C( 29 10  1)
1009-C( 30 10  1)1010-C( 31 10  1)1011-C( 32 10  1)1012-C( 33 10  1)
1013-C( 34 10  1)1014-C( 35 10  1)1015-C( 36 10  1)1016-C( 37 10  1)
1017-C( 38 10  1)1018-C( 39 10  1)1019-C( 40 10  1)1020-C( 41 10  1)
1021-C( 42 10  1)1022-C( 43 10  1)1023-C( 44 10  1)1024-C( 45 10  1)
1025-C( 46 10  1)1026-C( 47 10  1)1027-C( 11 11  1)1028-C( 12 11  1)
1029-C( 13 11  1)1030-C( 14 11  1)1031-C( 15 11  1)1032-C( 16 11  1)
1033-C( 17 11  1)1034-C( 18 11  1)1035-C( 19 11  1)1036-C( 20 11  1)
1037-C( 21 11  1)1038-C( 22 11  1)1039-C( 23 11  1)1040-C( 24 11  1)
1041-C( 25 11  1)1042-C( 26 11  1)1043-C( 27 11  1)1044-C( 28 11  1)
1045-C( 29 11  1)1046-C( 30 11  1)1047-C( 31 11  1)1048-C( 32 11  1)
1049-C( 33 11  1)1050-C( 34 11  1)1051-C( 35 11  1)1052-C( 36 11  1)
1053-C( 37 11  1)1054-C( 38 11  1)1055-C( 39 11  1)1056-C( 40 11  1)
1057-C( 41 11  1)1058-C( 42 11  1)1059-C( 43 11  1)1060-C( 44 11  1)
1061-C( 45 11  1)1062-C( 46 11  1)1063-C( 47 11  1)1064-C( 12 12  1)
1065-C( 13 12  1)1066-C( 14 12  1)1067-C( 15 12  1)1068-C( 16 12  1)
1069-C( 17 12  1)1070-C( 18 12  1)1071-C( 19 12  1)1072-C( 20 12  1)
1073-C( 21 12  1)1074-C( 22 12  1)1075-C( 23 12  1)1076-C( 24 12  1)
1077-C( 25 12  1)1078-C( 26 12  1)1079-C( 27 12  1)1080-C( 28 12  1)
1081-C( 29 12  1)1082-C( 30 12  1)1083-C( 31 12  1)1084-C( 32 12  1)
1085-C( 33 12  1)1086-C( 34 12  1)1087-C( 35 12  1)1088-C( 36 12  1)
1089-C( 37 12  1)1090-C( 38 12  1)1091-C( 39 12  1)1092-C( 40 12  1)
1093-C( 41 12  1)1094-C( 42 12  1)1095-C( 43 12  1)1096-C( 44 12  1)
1097-C( 45 12  1)1098-C( 46 12  1)1099-C( 47 12  1)1100-C( 13 13  1)
1101-C( 14 13  1)1102-C( 15 13  1)1103-C( 16 13  1)1104-C( 17 13  1)
1105-C( 18 13  1)1106-C( 19 13  1)1107-C( 20 13  1)1108-C( 21 13  1)
1109-C( 22 13  1)1110-C( 23 13  1)1111-C( 24 13  1)1112-C( 25 13  1)
1113-C( 26 13  1)1114-C( 27 13  1)1115-C( 28 13  1)1116-C( 29 13  1)
1117-C( 30 13  1)1118-C( 31 13  1)1119-C( 32 13  1)1120-C( 33 13  1)
1121-C( 34 13  1)1122-C( 35 13  1)1123-C( 36 13  1)1124-C( 37 13  1)
1125-C( 38 13  1)1126-C( 39 13  1)1127-C( 40 13  1)1128-C( 41 13  1)
1129-C( 42 13  1)1130-C( 43 13  1)1131-C( 44 13  1)1132-C( 45 13  1)
1133-C( 46 13  1)1134-C( 47 13  1)1135-C( 14 14  1)1136-C( 15 14  1)
1137-C( 16 14  1)1138-C( 17 14  1)1139-C( 18 14  1)1140-C( 19 14  1)
1141-C( 20 14  1)1142-C( 21 14  1)1143-C( 22 14  1)1144-C( 23 14  1)
1145-C( 24 14  1)1146-C( 25 14  1)1147-C( 26 14  1)1148-C( 27 14  1)
1149-C( 28 14  1)1150-C( 29 14  1)1151-C( 30 14  1)1152-C( 31 14  1)
1153-C( 32 14  1)1154-C( 33 14  1)1155-C( 34 14  1)1156-C( 35 14  1)
1157-C( 36 14  1)1158-C( 37 14  1)1159-C( 38 14  1)1160-C( 39 14  1)
1161-C( 40 14  1)1162-C( 41 14  1)1163-C( 42 14  1)1164-C( 43 14  1)
1165-C( 44 14  1)1166-C( 45 14  1)1167-C( 46 14  1)1168-C( 47 14  1)
1169-C( 15 15  1)1170-C( 16 15  1)1171-C( 17 15  1)1172-C( 18 15  1)
1173-C( 19 15  1)1174-C( 20 15  1)1175-C( 21 15  1)1176-C( 22 15  1)
1177-C( 23 15  1)1178-C( 24 15  1)1179-C( 25 15  1)1180-C( 26 15  1)
1181-C( 27 15  1)1182-C( 28 15  1)1183-C( 29 15  1)1184-C( 30 15  1)
1185-C( 31 15  1)1186-C( 32 15  1)1187-C( 33 15  1)1188-C( 34 15  1)
1189-C( 35 15  1)1190-C( 36 15  1)1191-C( 37 15  1)1192-C( 38 15  1)
1193-C( 39 15  1)1194-C( 40 15  1)1195-C( 41 15  1)1196-C( 42 15  1)
1197-C( 43 15  1)1198-C( 44 15  1)1199-C( 45 15  1)1200-C( 46 15  1)
1201-C( 47 15  1)1202-C( 16 16  1)1203-C( 17 16  1)1204-C( 18 16  1)
1205-C( 19 16  1)1206-C( 20 16  1)1207-C( 21 16  1)1208-C( 22 16  1)
1209-C( 23 16  1)1210-C( 24 16  1)1211-C( 25 16  1)1212-C( 26 16  1)
1213-C( 27 16  1)1214-C( 28 16  1)1215-C( 29 16  1)1216-C( 30 16  1)
1217-C( 31 16  1)1218-C( 32 16  1)1219-C( 33 16  1)1220-C( 34 16  1)
1221-C( 35 16  1)1222-C( 36 16  1)1223-C( 37 16  1)1224-C( 38 16  1)
1225-C( 39 16  1)1226-C( 40 16  1)1227-C( 41 16  1)1228-C( 42 16  1)
1229-C( 43 16  1)1230-C( 44 16  1)1231-C( 45 16  1)1232-C( 46 16  1)
1233-C( 47 16  1)1234-C( 17 17  1)1235-C( 18 17  1)1236-C( 19 17  1)
1237-C( 20 17  1)1238-C( 21 17  1)1239-C( 22 17  1)1240-C( 23 17  1)
1241-C( 24 17  1)1242-C( 25 17  1)1243-C( 26 17  1)1244-C( 27 17  1)
1245-C( 28 17  1)1246-C( 29 17  1)1247-C( 30 17  1)1248-C( 31 17  1)
1249-C( 32 17  1)1250-C( 33 17  1)1251-C( 34 17  1)1252-C( 35 17  1)
1253-C( 36 17  1)1254-C( 37 17  1)1255-C( 38 17  1)1256-C( 39 17  1)
1257-C( 40 17  1)1258-C( 41 17  1)1259-C( 42 17  1)1260-C( 43 17  1)
1261-C( 44 17  1)1262-C( 45 17  1)1263-C( 46 17  1)1264-C( 47 17  1)
1265-C( 18 18  1)1266-C( 19 18  1)1267-C( 20 18  1)1268-C( 21 18  1)
1269-C( 22 18  1)1270-C( 23 18  1)1271-C( 24 18  1)1272-C( 25 18  1)
1273-C( 26 18  1)1274-C( 27 18  1)1275-C( 28 18  1)1276-C( 29 18  1)
1277-C( 30 18  1)1278-C( 31 18  1)1279-C( 32 18  1)1280-C( 33 18  1)
1281-C( 34 18  1)1282-C( 35 18  1)1283-C( 36 18  1)1284-C( 37 18  1)
1285-C( 38 18  1)1286-C( 39 18  1)1287-C( 40 18  1)1288-C( 41 18  1)
1289-C( 42 18  1)1290-C( 43 18  1)1291-C( 44 18  1)1292-C( 45 18  1)
1293-C( 46 18  1)1294-C( 47 18  1)1295-C( 19 19  1)1296-C( 20 19  1)
1297-C( 21 19  1)1298-C( 22 19  1)1299-C( 23 19  1)1300-C( 24 19  1)
1301-C( 25 19  1)1302-C( 26 19  1)1303-C( 27 19  1)1304-C( 28 19  1)
1305-C( 29 19  1)1306-C( 30 19  1)1307-C( 31 19  1)1308-C( 32 19  1)
1309-C( 33 19  1)1310-C( 34 19  1)1311-C( 35 19  1)1312-C( 36 19  1)
1313-C( 37 19  1)1314-C( 38 19  1)1315-C( 39 19  1)1316-C( 40 19  1)
1317-C( 41 19  1)1318-C( 42 19  1)1319-C( 43 19  1)1320-C( 44 19  1)
1321-C( 45 19  1)1322-C( 46 19  1)1323-C( 47 19  1)1324-C( 20 20  1)
1325-C( 21 20  1)1326-C( 22 20  1)1327-C( 23 20  1)1328-C( 24 20  1)
1329-C( 25 20  1)1330-C( 26 20  1)1331-C( 27 20  1)1332-C( 28 20  1)
1333-C( 29 20  1)1334-C( 30 20  1)1335-C( 31 20  1)1336-C( 32 20  1)
1337-C( 33 20  1)1338-C( 34 20  1)1339-C( 35 20  1)1340-C( 36 20  1)
1341-C( 37 20  1)1342-C( 38 20  1)1343-C( 39 20  1)1344-C( 40 20  1)
1345-C( 41 20  1)1346-C( 42 20  1)1347-C( 43 20  1)1348-C( 44 20  1)
1349-C( 45 20  1)1350-C( 46 20  1)1351-C( 47 20  1)1352-C( 21 21  1)
1353-C( 22 21  1)1354-C( 23 21  1)1355-C( 24 21  1)1356-C( 25 21  1)
1357-C( 26 21  1)1358-C( 27 21  1)1359-C( 28 21  1)1360-C( 29 21  1)
1361-C( 30 21  1)1362-C( 31 21  1)1363-C( 32 21  1)1364-C( 33 21  1)
1365-C( 34 21  1)1366-C( 35 21  1)1367-C( 36 21  1)1368-C( 37 21  1)
1369-C( 38 21  1)1370-C( 39 21  1)1371-C( 40 21  1)1372-C( 41 21  1)
1373-C( 42 21  1)1374-C( 43 21  1)1375-C( 44 21  1)1376-C( 45 21  1)
1377-C( 46 21  1)1378-C( 47 21  1)1379-C( 22 22  1)1380-C( 23 22  1)
1381-C( 24 22  1)1382-C( 25 22  1)1383-C( 26 22  1)1384-C( 27 22  1)
1385-C( 28 22  1)1386-C( 29 22  1)1387-C( 30 22  1)1388-C( 31 22  1)
1389-C( 32 22  1)1390-C( 33 22  1)1391-C( 34 22  1)1392-C( 35 22  1)
1393-C( 36 22  1)1394-C( 37 22  1)1395-C( 38 22  1)1396-C( 39 22  1)
1397-C( 40 22  1)1398-C( 41 22  1)1399-C( 42 22  1)1400-C( 43 22  1)
1401-C( 44 22  1)1402-C( 45 22  1)1403-C( 46 22  1)1404-C( 47 22  1)
1405-C( 23 23  1)1406-C( 24 23  1)1407-C( 25 23  1)1408-C( 26 23  1)
1409-C( 27 23  1)1410-C( 28 23  1)1411-C( 29 23  1)1412-C( 30 23  1)
1413-C( 31 23  1)1414-C( 32 23  1)1415-C( 33 23  1)1416-C( 34 23  1)
1417-C( 35 23  1)1418-C( 36 23  1)1419-C( 37 23  1)1420-C( 38 23  1)
1421-C( 39 23  1)1422-C( 40 23  1)1423-C( 41 23  1)1424-C( 42 23  1)
1425-C( 43 23  1)1426-C( 44 23  1)1427-C( 45 23  1)1428-C( 46 23  1)
1429-C( 47 23  1)1430-C( 24 24  1)1431-C( 25 24  1)1432-C( 26 24  1)
1433-C( 27 24  1)1434-C( 28 24  1)1435-C( 29 24  1)1436-C( 30 24  1)
1437-C( 31 24  1)1438-C( 32 24  1)1439-C( 33 24  1)1440-C( 34 24  1)
1441-C( 35 24  1)1442-C( 36 24  1)1443-C( 37 24  1)1444-C( 38 24  1)
1445-C( 39 24  1)1446-C( 40 24  1)1447-C( 41 24  1)1448-C( 42 24  1)
1449-C( 43 24  1)1450-C( 44 24  1)1451-C( 45 24  1)1452-C( 46 24  1)
1453-C( 47 24  1)1454-C( 25 25  1)1455-C( 26 25  1)1456-C( 27 25  1)
1457-C( 28 25  1)1458-C( 29 25  1)1459-C( 30 25  1)1460-C( 31 25  1)
1461-C( 32 25  1)1462-C( 33 25  1)1463-C( 34 25  1)1464-C( 35 25  1)
1465-C( 36 25  1)1466-C( 37 25  1)1467-C( 38 25  1)1468-C( 39 25  1)
1469-C( 40 25  1)1470-C( 41 25  1)1471-C( 42 25  1)1472-C( 43 25  1)
1473-C( 44 25  1)1474-C( 45 25  1)1475-C( 46 25  1)1476-C( 26 26  1)
1477-C( 27 26  1)1478-C( 28 26  1)1479-C( 29 26  1)1480-C( 30 26  1)
1481-C( 31 26  1)1482-C( 32 26  1)1483-C( 33 26  1)1484-C( 34 26  1)
1485-C( 35 26  1)1486-C( 36 26  1)1487-C( 37 26  1)1488-C( 38 26  1)
1489-C( 39 26  1)1490-C( 40 26  1)1491-C( 41 26  1)1492-C( 42 26  1)
1493-C( 43 26  1)1494-C( 44 26  1)1495-C( 45 26  1)1496-C( 46 26  1)
1497-C( 27 27  1)1498-C( 28 27  1)1499-C( 29 27  1)1500-C( 30 27  1)
1501-C( 31 27  1)1502-C( 32 27  1)1503-C( 33 27  1)1504-C( 34 27  1)
1505-C( 35 27  1)1506-C( 36 27  1)1507-C( 37 27  1)1508-C( 38 27  1)
1509-C( 39 27  1)1510-C( 40 27  1)1511-C( 41 27  1)1512-C( 42 27  1)
1513-C( 43 27  1)1514-C( 44 27  1)1515-C( 45 27  1)1516-C( 46 27  1)
1517-C( 28 28  1)1518-C( 29 28  1)1519-C( 30 28  1)1520-C( 31 28  1)
1521-C( 32 28  1)1522-C( 33 28  1)1523-C( 34 28  1)1524-C( 35 28  1)
1525-C( 36 28  1)1526-C( 37 28  1)1527-C( 38 28  1)1528-C( 39 28  1)
1529-C( 40 28  1)1530-C( 41 28  1)1531-C( 42 28  1)1532-C( 43 28  1)
1533-C( 44 28  1)1534-C( 45 28  1)1535-C( 46 28  1)1536-C( 29 29  1)
1537-C( 30 29  1)1538-C( 31 29  1)1539-C( 32 29  1)1540-C( 33 29  1)
1541-C( 34 29  1)1542-C( 35 29  1)1543-C( 36 29  1)1544-C( 37 29  1)
1545-C( 38 29  1)1546-C( 39 29  1)1547-C( 40 29  1)1548-C( 41 29  1)
1549-C( 42 29  1)1550-C( 43 29  1)1551-C( 44 29  1)1552-C( 45 29  1)
1553-C( 46 29  1)1554-C( 30 30  1)1555-C( 31 30  1)1556-C( 32 30  1)
1557-C( 33 30  1)1558-C( 34 30  1)1559-C( 35 30  1)1560-C( 36 30  1)
1561-C( 37 30  1)1562-C( 38 30  1)1563-C( 39 30  1)1564-C( 40 30  1)
1565-C( 41 30  1)1566-C( 42 30  1)1567-C( 43 30  1)1568-C( 44 30  1)
1569-C( 45 30  1)1570-C( 46 30  1)1571-C( 31 31  1)1572-C( 32 31  1)
1573-C( 33 31  1)1574-C( 34 31  1)1575-C( 35 31  1)1576-C( 36 31  1)
1577-C( 37 31  1)1578-C( 38 31  1)1579-C( 39 31  1)1580-C( 40 31  1)
1581-C( 41 31  1)1582-C( 42 31  1)1583-C( 43 31  1)1584-C( 44 31  1)
1585-C( 45 31  1)1586-C( 46 31  1)1587-C( 32 32  1)1588-C( 33 32  1)
1589-C( 34 32  1)1590-C( 35 32  1)1591-C( 36 32  1)1592-C( 37 32  1)
1593-C( 38 32  1)1594-C( 39 32  1)1595-C( 40 32  1)1596-C( 41 32  1)
1597-C( 42 32  1)1598-C( 43 32  1)1599-C( 44 32  1)1600-C( 45 32  1)
1601-C( 46 32  1)1602-C( 33 33  1)1603-C( 34 33  1)1604-C( 35 33  1)
1605-C( 36 33  1)1606-C( 37 33  1)1607-C( 38 33  1)1608-C( 39 33  1)
1609-C( 40 33  1)1610-C( 41 33  1)1611-C( 42 33  1)1612-C( 43 33  1)
1613-C( 44 33  1)1614-C( 45 33  1)1615-C( 46 33  1)1616-C( 34 34  1)
1617-C( 35 34  1)1618-C( 36 34  1)1619-C( 37 34  1)1620-C( 38 34  1)
1621-C( 39 34  1)1622-C( 40 34  1)1623-C( 41 34  1)1624-C( 42 34  1)
1625-C( 43 34  1)1626-C( 44 34  1)1627-C( 45 34  1)1628-C( 46 34  1)
1629-C( 35 35  1)1630-C( 36 35  1)1631-C( 37 35  1)1632-C( 38 35  1)
1633-C( 39 35  1)1634-C( 40 35  1)1635-C( 41 35  1)1636-C( 42 35  1)
1637-C( 43 35  1)1638-C( 44 35  1)1639-C( 45 35  1)1640-C( 46 35  1)
1641-C( 36 36  1)1642-C( 37 36  1)1643-C( 38 36  1)1644-C( 39 36  1)
1645-C( 40 36  1)1646-C( 41 36  1)1647-C( 42 36  1)1648-C( 43 36  1)
1649-C( 44 36  1)1650-C( 45 36  1)1651-C( 46 36  1)1652-C( 37 37  1)
1653-C( 38 37  1)1654-C( 39 37  1)1655-C( 40 37  1)1656-C( 41 37  1)
1657-C( 42 37  1)1658-C( 43 37  1)1659-C( 44 37  1)1660-C( 45 37  1)
1661-C( 46 37  1)1662-C( 38 38  1)1663-C( 39 38  1)1664-C( 40 38  1)
1665-C( 41 38  1)1666-C( 42 38  1)1667-C( 43 38  1)1668-C( 44 38  1)
1669-C( 45 38  1)1670-C( 46 38  1)1671-C( 39 39  1)1672-C( 40 39  1)
1673-C( 41 39  1)1674-C( 42 39  1)1675-C( 43 39  1)1676-C( 44 39  1)
1677-C( 45 39  1)1678-C( 46 39  1)1679-C( 40 40  1)1680-C( 41 40  1)
1681-C( 42 40  1)1682-C( 43 40  1)1683-C( 44 40  1)1684-C( 45 40  1)
1685-C( 46 40  1)1686-C( 41 41  1)1687-C( 42 41  1)1688-C( 43 41  1)
1689-C( 44 41  1)1690-C( 45 41  1)1691-C( 46 41  1)1692-C( 42 42  1)
1693-C( 43 42  1)1694-C( 44 42  1)1695-C( 45 42  1)1696-C( 46 42  1)
1697-C( 43 43  1)1698-C( 44 43  1)1699-C( 45 43  1)1700-C( 46 43  1)
1701-C( 44 44  1)1702-C( 45 44  1)1703-C( 46 44  1)1704-C( 45 45  1)
1705-C( 46 45  1)1706-C( 46 46  1)1707-C(  2  2  2)1708-C(  3  2  2)
1709-C(  4  2  2)1710-C(  5  2  2)1711-C(  6  2  2)1712-C(  7  2  2)
1713-C(  8  2  2)1714-C(  9  2  2)1715-C( 10  2  2)1716-C( 11  2  2)
1717-C( 12  2  2)1718-C( 13  2  2)1719-C( 14  2  2)1720-C( 15  2  2)
1721-C( 16  2  2)1722-C( 17  2  2)1723-C( 18  2  2)1724-C( 19  2  2)
1725-C( 20  2  2)1726-C( 21  2  2)1727-C( 22  2  2)1728-C( 23  2  2)
1729-C( 24  2  2)1730-C( 25  2  2)1731-C( 26  2  2)1732-C( 27  2  2)
1733-C( 28  2  2)1734-C( 29  2  2)1735-C( 30  2  2)1736-C( 31  2  2)
1737-C( 32  2  2)1738-C( 33  2  2)1739-C( 34  2  2)1740-C( 35  2  2)
1741-C( 36  2  2)1742-C( 37  2  2)1743-C( 38  2  2)1744-C( 39  2  2)
1745-C( 40  2  2)1746-C( 41  2  2)1747-C( 42  2  2)1748-C( 43  2  2)
1749-C( 44  2  2)1750-C( 45  2  2)1751-C( 46  2  2)1752-C(  3  3  2)
1753-C(  4  3  2)1754-C(  5  3  2)1755-C(  6  3  2)1756-C(  7  3  2)
1757-C(  8  3  2)1758-C(  9  3  2)1759-C( 10  3  2)1760-C( 11  3  2)
1761-C( 12  3  2)1762-C( 13  3  2)1763-C( 14  3  2)1764-C( 15  3  2)
1765-C( 16  3  2)1766-C( 17  3  2)1767-C( 18  3  2)1768-C( 19  3  2)
1769-C( 20  3  2)1770-C( 21  3  2)1771-C( 22  3  2)1772-C( 23  3  2)
1773-C( 24  3  2)1774-C( 25  3  2)1775-C( 26  3  2)1776-C( 27  3  2)
1777-C( 28  3  2)1778-C( 29  3  2)1779-C( 30  3  2)1780-C( 31  3  2)
1781-C( 32  3  2)1782-C( 33  3  2)1783-C( 34  3  2)1784-C( 35  3  2)
1785-C( 36  3  2)1786-C( 37  3  2)1787-C( 38  3  2)1788-C( 39  3  2)
1789-C( 40  3  2)1790-C( 41  3  2)1791-C( 42  3  2)1792-C( 43  3  2)
1793-C( 44  3  2)1794-C( 45  3  2)1795-C( 46  3  2)1796-C(  4  4  2)
1797-C(  5  4  2)1798-C(  6  4  2)1799-C(  7  4  2)1800-C(  8  4  2)
1801-C(  9  4  2)1802-C( 10  4  2)1803-C( 11  4  2)1804-C( 12  4  2)
1805-C( 13  4  2)1806-C( 14  4  2)1807-C( 15  4  2)1808-C( 16  4  2)
1809-C( 17  4  2)1810-C( 18  4  2)1811-C( 19  4  2)1812-C( 20  4  2)
1813-C( 21  4  2)1814-C( 22  4  2)1815-C( 23  4  2)1816-C( 24  4  2)
1817-C( 25  4  2)1818-C( 26  4  2)1819-C( 27  4  2)1820-C( 28  4  2)
1821-C( 29  4  2)1822-C( 30  4  2)1823-C( 31  4  2)1824-C( 32  4  2)
1825-C( 33  4  2)1826-C( 34  4  2)1827-C( 35  4  2)1828-C( 36  4  2)
1829-C( 37  4  2)1830-C( 38  4  2)1831-C( 39  4  2)1832-C( 40  4  2)
1833-C( 41  4  2)1834-C( 42  4  2)1835-C( 43  4  2)1836-C( 44  4  2)
1837-C( 45  4  2)1838-C( 46  4  2)1839-C(  5  5  2)1840-C(  6  5  2)
1841-C(  7  5  2)1842-C(  8  5  2)1843-C(  9  5  2)1844-C( 10  5  2)
1845-C( 11  5  2)1846-C( 12  5  2)1847-C( 13  5  2)1848-C( 14  5  2)
1849-C( 15  5  2)1850-C( 16  5  2)1851-C( 17  5  2)1852-C( 18  5  2)
1853-C( 19  5  2)1854-C( 20  5  2)1855-C( 21  5  2)1856-C( 22  5  2)
1857-C( 23  5  2)1858-C( 24  5  2)1859-C( 25  5  2)1860-C( 26  5  2)
1861-C( 27  5  2)1862-C( 28  5  2)1863-C( 29  5  2)1864-C( 30  5  2)
1865-C( 31  5  2)1866-C( 32  5  2)1867-C( 33  5  2)1868-C( 34  5  2)
1869-C( 35  5  2)1870-C( 36  5  2)1871-C( 37  5  2)1872-C( 38  5  2)
1873-C( 39  5  2)1874-C( 40  5  2)1875-C( 41  5  2)1876-C( 42  5  2)
1877-C( 43  5  2)1878-C( 44  5  2)1879-C( 45  5  2)1880-C( 46  5  2)
1881-C(  6  6  2)1882-C(  7  6  2)1883-C(  8  6  2)1884-C(  9  6  2)
1885-C( 10  6  2)1886-C( 11  6  2)1887-C( 12  6  2)1888-C( 13  6  2)
1889-C( 14  6  2)1890-C( 15  6  2)1891-C( 16  6  2)1892-C( 17  6  2)
1893-C( 18  6  2)1894-C( 19  6  2)1895-C( 20  6  2)1896-C( 21  6  2)
1897-C( 22  6  2)1898-C( 23  6  2)1899-C( 24  6  2)1900-C( 25  6  2)
1901-C( 26  6  2)1902-C( 27  6  2)1903-C( 28  6  2)1904-C( 29  6  2)
1905-C( 30  6  2)1906-C( 31  6  2)1907-C( 32  6  2)1908-C( 33  6  2)
1909-C( 34  6  2)1910-C( 35  6  2)1911-C( 36  6  2)1912-C( 37  6  2)
1913-C( 38  6  2)1914-C( 39  6  2)1915-C( 40  6  2)1916-C( 41  6  2)
1917-C( 42  6  2)1918-C( 43  6  2)1919-C( 44  6  2)1920-C( 45  6  2)
1921-C( 46  6  2)1922-C(  7  7  2)1923-C(  8  7  2)1924-C(  9  7  2)
1925-C( 10  7  2)1926-C( 11  7  2)1927-C( 12  7  2)1928-C( 13  7  2)
1929-C( 14  7  2)1930-C( 15  7  2)1931-C( 16  7  2)1932-C( 17  7  2)
1933-C( 18  7  2)1934-C( 19  7  2)1935-C( 20  7  2)1936-C( 21  7  2)
1937-C( 22  7  2)1938-C( 23  7  2)1939-C( 24  7  2)1940-C( 25  7  2)
1941-C( 26  7  2)1942-C( 27  7  2)1943-C( 28  7  2)1944-C( 29  7  2)
1945-C( 30  7  2)1946-C( 31  7  2)1947-C( 32  7  2)1948-C( 33  7  2)
1949-C( 34  7  2)1950-C( 35  7  2)1951-C( 36  7  2)1952-C( 37  7  2)
1953-C( 38  7  2)1954-C( 39  7  2)1955-C( 40  7  2)1956-C( 41  7  2)
1957-C( 42  7  2)1958-C( 43  7  2)1959-C( 44  7  2)1960-C( 45  7  2)
1961-C( 46  7  2)1962-C(  8  8  2)1963-C(  9  8  2)1964-C( 10  8  2)
1965-C( 11  8  2)1966-C( 12  8  2)1967-C( 13  8  2)1968-C( 14  8  2)
1969-C( 15  8  2)1970-C( 16  8  2)1971-C( 17  8  2)1972-C( 18  8  2)
1973-C( 19  8  2)1974-C( 20  8  2)1975-C( 21  8  2)1976-C( 22  8  2)
1977-C( 23  8  2)1978-C( 24  8  2)1979-C( 25  8  2)1980-C( 26  8  2)
1981-C( 27  8  2)1982-C( 28  8  2)1983-C( 29  8  2)1984-C( 30  8  2)
1985-C( 31  8  2)1986-C( 32  8  2)1987-C( 33  8  2)1988-C( 34  8  2)
1989-C( 35  8  2)1990-C( 36  8  2)1991-C( 37  8  2)1992-C( 38  8  2)
1993-C( 39  8  2)1994-C( 40  8  2)1995-C( 41  8  2)1996-C( 42  8  2)
1997-C( 43  8  2)1998-C( 44  8  2)1999-C( 45  8  2)2000-C( 46  8  2)
2001-C(  9  9  2)2002-C( 10  9  2)2003-C( 11  9  2)2004-C( 12  9  2)
2005-C( 13  9  2)2006-C( 14  9  2)2007-C( 15  9  2)2008-C( 16  9  2)
2009-C( 17  9  2)2010-C( 18  9  2)2011-C( 19  9  2)2012-C( 20  9  2)
2013-C( 21  9  2)2014-C( 22  9  2)2015-C( 23  9  2)2016-C( 24  9  2)
2017-C( 25  9  2)2018-C( 26  9  2)2019-C( 27  9  2)2020-C( 28  9  2)
2021-C( 29  9  2)2022-C( 30  9  2)2023-C( 31  9  2)2024-C( 32  9  2)
2025-C( 33  9  2)2026-C( 34  9  2)2027-C( 35  9  2)2028-C( 36  9  2)
2029-C( 37  9  2)2030-C( 38  9  2)2031-C( 39  9  2)2032-C( 40  9  2)
2033-C( 41  9  2)2034-C( 42  9  2)2035-C( 43  9  2)2036-C( 44  9  2)
2037-C( 45  9  2)2038-C( 46  9  2)2039-C( 10 10  2)2040-C( 11 10  2)
2041-C( 12 10  2)2042-C( 13 10  2)2043-C( 14 10  2)2044-C( 15 10  2)
2045-C( 16 10  2)2046-C( 17 10  2)2047-C( 18 10  2)2048-C( 19 10  2)
2049-C( 20 10  2)2050-C( 21 10  2)2051-C( 22 10  2)2052-C( 23 10  2)
2053-C( 24 10  2)2054-C( 25 10  2)2055-C( 26 10  2)2056-C( 27 10  2)
2057-C( 28 10  2)2058-C( 29 10  2)2059-C( 30 10  2)2060-C( 31 10  2)
2061-C( 32 10  2)2062-C( 33 10  2)2063-C( 34 10  2)2064-C( 35 10  2)
2065-C( 36 10  2)2066-C( 37 10  2)2067-C( 38 10  2)2068-C( 39 10  2)
2069-C( 40 10  2)2070-C( 41 10  2)2071-C( 42 10  2)2072-C( 43 10  2)
2073-C( 44 10  2)2074-C( 45 10  2)2075-C( 46 10  2)2076-C( 11 11  2)
2077-C( 12 11  2)2078-C( 13 11  2)2079-C( 14 11  2)2080-C( 15 11  2)
2081-C( 16 11  2)2082-C( 17 11  2)2083-C( 18 11  2)2084-C( 19 11  2)
2085-C( 20 11  2)2086-C( 21 11  2)2087-C( 22 11  2)2088-C( 23 11  2)
2089-C( 24 11  2)2090-C( 25 11  2)2091-C( 26 11  2)2092-C( 27 11  2)
2093-C( 28 11  2)2094-C( 29 11  2)2095-C( 30 11  2)2096-C( 31 11  2)
2097-C( 32 11  2)2098-C( 33 11  2)2099-C( 34 11  2)2100-C( 35 11  2)
2101-C( 36 11  2)2102-C( 37 11  2)2103-C( 38 11  2)2104-C( 39 11  2)
2105-C( 40 11  2)2106-C( 41 11  2)2107-C( 42 11  2)2108-C( 43 11  2)
2109-C( 44 11  2)2110-C( 45 11  2)2111-C( 46 11  2)2112-C( 12 12  2)
2113-C( 13 12  2)2114-C( 14 12  2)2115-C( 15 12  2)2116-C( 16 12  2)
2117-C( 17 12  2)2118-C( 18 12  2)2119-C( 19 12  2)2120-C( 20 12  2)
2121-C( 21 12  2)2122-C( 22 12  2)2123-C( 23 12  2)2124-C( 24 12  2)
2125-C( 25 12  2)2126-C( 26 12  2)2127-C( 27 12  2)2128-C( 28 12  2)
2129-C( 29 12  2)2130-C( 30 12  2)2131-C( 31 12  2)2132-C( 32 12  2)
2133-C( 33 12  2)2134-C( 34 12  2)2135-C( 35 12  2)2136-C( 36 12  2)
2137-C( 37 12  2)2138-C( 38 12  2)2139-C( 39 12  2)2140-C( 40 12  2)
2141-C( 41 12  2)2142-C( 42 12  2)2143-C( 43 12  2)2144-C( 44 12  2)
2145-C( 45 12  2)2146-C( 46 12  2)2147-C( 13 13  2)2148-C( 14 13  2)
2149-C( 15 13  2)2150-C( 16 13  2)2151-C( 17 13  2)2152-C( 18 13  2)
2153-C( 19 13  2)2154-C( 20 13  2)2155-C( 21 13  2)2156-C( 22 13  2)
2157-C( 23 13  2)2158-C( 24 13  2)2159-C( 25 13  2)2160-C( 26 13  2)
2161-C( 27 13  2)2162-C( 28 13  2)2163-C( 29 13  2)2164-C( 30 13  2)
2165-C( 31 13  2)2166-C( 32 13  2)2167-C( 33 13  2)2168-C( 34 13  2)
2169-C( 35 13  2)2170-C( 36 13  2)2171-C( 37 13  2)2172-C( 38 13  2)
2173-C( 39 13  2)2174-C( 40 13  2)2175-C( 41 13  2)2176-C( 42 13  2)
2177-C( 43 13  2)2178-C( 44 13  2)2179-C( 45 13  2)2180-C( 46 13  2)
2181-C( 14 14  2)2182-C( 15 14  2)2183-C( 16 14  2)2184-C( 17 14  2)
2185-C( 18 14  2)2186-C( 19 14  2)2187-C( 20 14  2)2188-C( 21 14  2)
2189-C( 22 14  2)2190-C( 23 14  2)2191-C( 24 14  2)2192-C( 25 14  2)
2193-C( 26 14  2)2194-C( 27 14  2)2195-C( 28 14  2)2196-C( 29 14  2)
2197-C( 30 14  2)2198-C( 31 14  2)2199-C( 32 14  2)2200-C( 33 14  2)
2201-C( 34 14  2)2202-C( 35 14  2)2203-C( 36 14  2)2204-C( 37 14  2)
2205-C( 38 14  2)2206-C( 39 14  2)2207-C( 40 14  2)2208-C( 41 14  2)
2209-C( 42 14  2)2210-C( 43 14  2)2211-C( 44 14  2)2212-C( 45 14  2)
2213-C( 46 14  2)2214-C( 15 15  2)2215-C( 16 15  2)2216-C( 17 15  2)
2217-C( 18 15  2)2218-C( 19 15  2)2219-C( 20 15  2)2220-C( 21 15  2)
2221-C( 22 15  2)2222-C( 23 15  2)2223-C( 24 15  2)2224-C( 25 15  2)
2225-C( 26 15  2)2226-C( 27 15  2)2227-C( 28 15  2)2228-C( 29 15  2)
2229-C( 30 15  2)2230-C( 31 15  2)2231-C( 32 15  2)2232-C( 33 15  2)
2233-C( 34 15  2)2234-C( 35 15  2)2235-C( 36 15  2)2236-C( 37 15  2)
2237-C( 38 15  2)2238-C( 39 15  2)2239-C( 40 15  2)2240-C( 41 15  2)
2241-C( 42 15  2)2242-C( 43 15  2)2243-C( 44 15  2)2244-C( 45 15  2)
2245-C( 46 15  2)2246-C( 16 16  2)2247-C( 17 16  2)2248-C( 18 16  2)
2249-C( 19 16  2)2250-C( 20 16  2)2251-C( 21 16  2)2252-C( 22 16  2)
2253-C( 23 16  2)2254-C( 24 16  2)2255-C( 25 16  2)2256-C( 26 16  2)
2257-C( 27 16  2)2258-C( 28 16  2)2259-C( 29 16  2)2260-C( 30 16  2)
2261-C( 31 16  2)2262-C( 32 16  2)2263-C( 33 16  2)2264-C( 34 16  2)
2265-C( 35 16  2)2266-C( 36 16  2)2267-C( 37 16  2)2268-C( 38 16  2)
2269-C( 39 16  2)2270-C( 40 16  2)2271-C( 41 16  2)2272-C( 42 16  2)
2273-C( 43 16  2)2274-C( 44 16  2)2275-C( 45 16  2)2276-C( 46 16  2)
2277-C( 17 17  2)2278-C( 18 17  2)2279-C( 19 17  2)2280-C( 20 17  2)
2281-C( 21 17  2)2282-C( 22 17  2)2283-C( 23 17  2)2284-C( 24 17  2)
2285-C( 25 17  2)2286-C( 26 17  2)2287-C( 27 17  2)2288-C( 28 17  2)
2289-C( 29 17  2)2290-C( 30 17  2)2291-C( 31 17  2)2292-C( 32 17  2)
2293-C( 33 17  2)2294-C( 34 17  2)2295-C( 35 17  2)2296-C( 36 17  2)
2297-C( 37 17  2)2298-C( 38 17  2)2299-C( 39 17  2)2300-C( 40 17  2)
2301-C( 41 17  2)2302-C( 42 17  2)2303-C( 43 17  2)2304-C( 44 17  2)
2305-C( 45 17  2)2306-C( 46 17  2)2307-C( 18 18  2)2308-C( 19 18  2)
2309-C( 20 18  2)2310-C( 21 18  2)2311-C( 22 18  2)2312-C( 23 18  2)
2313-C( 24 18  2)2314-C( 25 18  2)2315-C( 26 18  2)2316-C( 27 18  2)
2317-C( 28 18  2)2318-C( 29 18  2)2319-C( 30 18  2)2320-C( 31 18  2)
2321-C( 32 18  2)2322-C( 33 18  2)2323-C( 34 18  2)2324-C( 35 18  2)
2325-C( 36 18  2)2326-C( 37 18  2)2327-C( 38 18  2)2328-C( 39 18  2)
2329-C( 40 18  2)2330-C( 41 18  2)2331-C( 42 18  2)2332-C( 43 18  2)
2333-C( 44 18  2)2334-C( 45 18  2)2335-C( 46 18  2)2336-C( 19 19  2)
2337-C( 20 19  2)2338-C( 21 19  2)2339-C( 22 19  2)2340-C( 23 19  2)
2341-C( 24 19  2)2342-C( 25 19  2)2343-C( 26 19  2)2344-C( 27 19  2)
2345-C( 28 19  2)2346-C( 29 19  2)2347-C( 30 19  2)2348-C( 31 19  2)
2349-C( 32 19  2)2350-C( 33 19  2)2351-C( 34 19  2)2352-C( 35 19  2)
2353-C( 36 19  2)2354-C( 37 19  2)2355-C( 38 19  2)2356-C( 39 19  2)
2357-C( 40 19  2)2358-C( 41 19  2)2359-C( 42 19  2)2360-C( 43 19  2)
2361-C( 44 19  2)2362-C( 45 19  2)2363-C( 46 19  2)2364-C( 20 20  2)
2365-C( 21 20  2)2366-C( 22 20  2)2367-C( 23 20  2)2368-C( 24 20  2)
2369-C( 25 20  2)2370-C( 26 20  2)2371-C( 27 20  2)2372-C( 28 20  2)
2373-C( 29 20  2)2374-C( 30 20  2)2375-C( 31 20  2)2376-C( 32 20  2)
2377-C( 33 20  2)2378-C( 34 20  2)2379-C( 35 20  2)2380-C( 36 20  2)
2381-C( 37 20  2)2382-C( 38 20  2)2383-C( 39 20  2)2384-C( 40 20  2)
2385-C( 41 20  2)2386-C( 42 20  2)2387-C( 43 20  2)2388-C( 44 20  2)
2389-C( 45 20  2)2390-C( 46 20  2)2391-C( 21 21  2)2392-C( 22 21  2)
2393-C( 23 21  2)2394-C( 24 21  2)2395-C( 25 21  2)2396-C( 26 21  2)
2397-C( 27 21  2)2398-C( 28 21  2)2399-C( 29 21  2)2400-C( 30 21  2)
2401-C( 31 21  2)2402-C( 32 21  2)2403-C( 33 21  2)2404-C( 34 21  2)
2405-C( 35 21  2)2406-C( 36 21  2)2407-C( 37 21  2)2408-C( 38 21  2)
2409-C( 39 21  2)2410-C( 40 21  2)2411-C( 41 21  2)2412-C( 42 21  2)
2413-C( 43 21  2)2414-C( 44 21  2)2415-C( 45 21  2)2416-C( 46 21  2)
2417-C( 22 22  2)2418-C( 23 22  2)2419-C( 24 22  2)2420-C( 25 22  2)
2421-C( 26 22  2)2422-C( 27 22  2)2423-C( 28 22  2)2424-C( 29 22  2)
2425-C( 30 22  2)2426-C( 31 22  2)2427-C( 32 22  2)2428-C( 33 22  2)
2429-C( 34 22  2)2430-C( 35 22  2)2431-C( 36 22  2)2432-C( 37 22  2)
2433-C( 38 22  2)2434-C( 39 22  2)2435-C( 40 22  2)2436-C( 41 22  2)
2437-C( 42 22  2)2438-C( 43 22  2)2439-C( 44 22  2)2440-C( 45 22  2)
2441-C( 46 22  2)2442-C( 23 23  2)2443-C( 24 23  2)2444-C( 25 23  2)
2445-C( 26 23  2)2446-C( 27 23  2)2447-C( 28 23  2)2448-C( 29 23  2)
2449-C( 30 23  2)2450-C( 31 23  2)2451-C( 32 23  2)2452-C( 33 23  2)
2453-C( 34 23  2)2454-C( 35 23  2)2455-C( 36 23  2)2456-C( 37 23  2)
2457-C( 38 23  2)2458-C( 39 23  2)2459-C( 40 23  2)2460-C( 41 23  2)
2461-C( 42 23  2)2462-C( 43 23  2)2463-C( 44 23  2)2464-C( 45 23  2)
2465-C( 46 23  2)2466-C( 24 24  2)2467-C( 25 24  2)2468-C( 26 24  2)
2469-C( 27 24  2)2470-C( 28 24  2)2471-C( 29 24  2)2472-C( 30 24  2)
2473-C( 31 24  2)2474-C( 32 24  2)2475-C( 33 24  2)2476-C( 34 24  2)
2477-C( 35 24  2)2478-C( 36 24  2)2479-C( 37 24  2)2480-C( 38 24  2)
2481-C( 39 24  2)2482-C( 40 24  2)2483-C( 41 24  2)2484-C( 42 24  2)
2485-C( 43 24  2)2486-C( 44 24  2)2487-C( 45 24  2)2488-C( 46 24  2)
2489-C( 25 25  2)2490-C( 26 25  2)2491-C( 27 25  2)2492-C( 28 25  2)
2493-C( 29 25  2)2494-C( 30 25  2)2495-C( 31 25  2)2496-C( 32 25  2)
2497-C( 33 25  2)2498-C( 34 25  2)2499-C( 35 25  2)2500-C( 36 25  2)
2501-C( 37 25  2)2502-C( 38 25  2)2503-C( 39 25  2)2504-C( 40 25  2)
2505-C( 41 25  2)2506-C( 42 25  2)2507-C( 43 25  2)2508-C( 44 25  2)
2509-C( 45 25  2)2510-C( 26 26  2)2511-C( 27 26  2)2512-C( 28 26  2)
2513-C( 29 26  2)2514-C( 30 26  2)2515-C( 31 26  2)2516-C( 32 26  2)
2517-C( 33 26  2)2518-C( 34 26  2)2519-C( 35 26  2)2520-C( 36 26  2)
2521-C( 37 26  2)2522-C( 38 26  2)2523-C( 39 26  2)2524-C( 40 26  2)
2525-C( 41 26  2)2526-C( 42 26  2)2527-C( 43 26  2)2528-C( 44 26  2)
2529-C( 45 26  2)2530-C( 27 27  2)2531-C( 28 27  2)2532-C( 29 27  2)
2533-C( 30 27  2)2534-C( 31 27  2)2535-C( 32 27  2)2536-C( 33 27  2)
2537-C( 34 27  2)2538-C( 35 27  2)2539-C( 36 27  2)2540-C( 37 27  2)
2541-C( 38 27  2)2542-C( 39 27  2)2543-C( 40 27  2)2544-C( 41 27  2)
2545-C( 42 27  2)2546-C( 43 27  2)2547-C( 44 27  2)2548-C( 45 27  2)
2549-C( 28 28  2)2550-C( 29 28  2)2551-C( 30 28  2)2552-C( 31 28  2)
2553-C( 32 28  2)2554-C( 33 28  2)2555-C( 34 28  2)2556-C( 35 28  2)
2557-C( 36 28  2)2558-C( 37 28  2)2559-C( 38 28  2)2560-C( 39 28  2)
2561-C( 40 28  2)2562-C( 41 28  2)2563-C( 42 28  2)2564-C( 43 28  2)
2565-C( 44 28  2)2566-C( 45 28  2)2567-C( 29 29  2)2568-C( 30 29  2)
2569-C( 31 29  2)2570-C( 32 29  2)2571-C( 33 29  2)2572-C( 34 29  2)
2573-C( 35 29  2)2574-C( 36 29  2)2575-C( 37 29  2)2576-C( 38 29  2)
2577-C( 39 29  2)2578-C( 40 29  2)2579-C( 41 29  2)2580-C( 42 29  2)
2581-C( 43 29  2)2582-C( 44 29  2)2583-C( 45 29  2)2584-C( 30 30  2)
2585-C( 31 30  2)2586-C( 32 30  2)2587-C( 33 30  2)2588-C( 34 30  2)
2589-C( 35 30  2)2590-C( 36 30  2)2591-C( 37 30  2)2592-C( 38 30  2)
2593-C( 39 30  2)2594-C( 40 30  2)2595-C( 41 30  2)2596-C( 42 30  2)
2597-C( 43 30  2)2598-C( 44 30  2)2599-C( 45 30  2)2600-C( 31 31  2)
2601-C( 32 31  2)2602-C( 33 31  2)2603-C( 34 31  2)2604-C( 35 31  2)
2605-C( 36 31  2)2606-C( 37 31  2)2607-C( 38 31  2)2608-C( 39 31  2)
2609-C( 40 31  2)2610-C( 41 31  2)2611-C( 42 31  2)2612-C( 43 31  2)
2613-C( 44 31  2)2614-C( 45 31  2)2615-C( 32 32  2)2616-C( 33 32  2)
2617-C( 34 32  2)2618-C( 35 32  2)2619-C( 36 32  2)2620-C( 37 32  2)
2621-C( 38 32  2)2622-C( 39 32  2)2623-C( 40 32  2)2624-C( 41 32  2)
2625-C( 42 32  2)2626-C( 43 32  2)2627-C( 44 32  2)2628-C( 45 32  2)
2629-C( 33 33  2)2630-C( 34 33  2)2631-C( 35 33  2)2632-C( 36 33  2)
2633-C( 37 33  2)2634-C( 38 33  2)2635-C( 39 33  2)2636-C( 40 33  2)
2637-C( 41 33  2)2638-C( 42 33  2)2639-C( 43 33  2)2640-C( 44 33  2)
2641-C( 45 33  2)2642-C( 34 34  2)2643-C( 35 34  2)2644-C( 36 34  2)
2645-C( 37 34  2)2646-C( 38 34  2)2647-C( 39 34  2)2648-C( 40 34  2)
2649-C( 41 34  2)2650-C( 42 34  2)2651-C( 43 34  2)2652-C( 44 34  2)
2653-C( 45 34  2)2654-C( 35 35  2)2655-C( 36 35  2)2656-C( 37 35  2)
2657-C( 38 35  2)2658-C( 39 35  2)2659-C( 40 35  2)2660-C( 41 35  2)
2661-C( 42 35  2)2662-C( 43 35  2)2663-C( 44 35  2)2664-C( 45 35  2)
2665-C( 36 36  2)2666-C( 37 36  2)2667-C( 38 36  2)2668-C( 39 36  2)
2669-C( 40 36  2)2670-C( 41 36  2)2671-C( 42 36  2)2672-C( 43 36  2)
2673-C( 44 36  2)2674-C( 45 36  2)2675-C( 37 37  2)2676-C( 38 37  2)
2677-C( 39 37  2)2678-C( 40 37  2)2679-C( 41 37  2)2680-C( 42 37  2)
2681-C( 43 37  2)2682-C( 44 37  2)2683-C( 45 37  2)2684-C( 38 38  2)
2685-C( 39 38  2)2686-C( 40 38  2)2687-C( 41 38  2)2688-C( 42 38  2)
2689-C( 43 38  2)2690-C( 44 38  2)2691-C( 45 38  2)2692-C( 39 39  2)
2693-C( 40 39  2)2694-C( 41 39  2)2695-C( 42 39  2)2696-C( 43 39  2)
2697-C( 44 39  2)2698-C( 45 39  2)2699-C( 40 40  2)2700-C( 41 40  2)
2701-C( 42 40  2)2702-C( 43 40  2)2703-C( 44 40  2)2704-C( 45 40  2)
2705-C( 41 41  2)2706-C( 42 41  2)2707-C( 43 41  2)2708-C( 44 41  2)
2709-C( 45 41  2)2710-C( 42 42  2)2711-C( 43 42  2)2712-C( 44 42  2)
2713-C( 45 42  2)2714-C( 43 43  2)2715-C( 44 43  2)2716-C( 45 43  2)
2717-C( 44 44  2)2718-C( 45 44  2)2719-C( 45 45  2)2720-C(  3  3  3)
2721-C(  4  3  3)2722-C(  5  3  3)2723-C(  6  3  3)2724-C(  7  3  3)
2725-C(  8  3  3)2726-C(  9  3  3)2727-C( 10  3  3)2728-C( 11  3  3)
2729-C( 12  3  3)2730-C( 13  3  3)2731-C( 14  3  3)2732-C( 15  3  3)
2733-C( 16  3  3)2734-C( 17  3  3)2735-C( 18  3  3)2736-C( 19  3  3)
2737-C( 20  3  3)2738-C( 21  3  3)2739-C( 22  3  3)2740-C( 23  3  3)
2741-C( 24  3  3)2742-C( 25  3  3)2743-C( 26  3  3)2744-C( 27  3  3)
2745-C( 28  3  3)2746-C( 29  3  3)2747-C( 30  3  3)2748-C( 31  3  3)
2749-C( 32  3  3)2750-C( 33  3  3)2751-C( 34  3  3)2752-C( 35  3  3)
2753-C( 36  3  3)2754-C( 37  3  3)2755-C( 38  3  3)2756-C( 39  3  3)
2757-C( 40  3  3)2758-C( 41  3  3)2759-C( 42  3  3)2760-C( 43  3  3)
2761-C( 44  3  3)2762-C( 45  3  3)2763-C(  4  4  3)2764-C(  5  4  3)
2765-C(  6  4  3)2766-C(  7  4  3)2767-C(  8  4  3)2768-C(  9  4  3)
2769-C( 10  4  3)2770-C( 11  4  3)2771-C( 12  4  3)2772-C( 13  4  3)
2773-C( 14  4  3)2774-C( 15  4  3)2775-C( 16  4  3)2776-C( 17  4  3)
2777-C( 18  4  3)2778-C( 19  4  3)2779-C( 20  4  3)2780-C( 21  4  3)
2781-C( 22  4  3)2782-C( 23  4  3)2783-C( 24  4  3)2784-C( 25  4  3)
2785-C( 26  4  3)2786-C( 27  4  3)2787-C( 28  4  3)2788-C( 29  4  3)
2789-C( 30  4  3)2790-C( 31  4  3)2791-C( 32  4  3)2792-C( 33  4  3)
2793-C( 34  4  3)2794-C( 35  4  3)2795-C( 36  4  3)2796-C( 37  4  3)
2797-C( 38  4  3)2798-C( 39  4  3)2799-C( 40  4  3)2800-C( 41  4  3)
2801-C( 42  4  3)2802-C( 43  4  3)2803-C( 44  4  3)2804-C( 45  4  3)
2805-C(  5  5  3)2806-C(  6  5  3)2807-C(  7  5  3)2808-C(  8  5  3)
2809-C(  9  5  3)2810-C( 10  5  3)2811-C( 11  5  3)2812-C( 12  5  3)
2813-C( 13  5  3)2814-C( 14  5  3)2815-C( 15  5  3)2816-C( 16  5  3)
2817-C( 17  5  3)2818-C( 18  5  3)2819-C( 19  5  3)2820-C( 20  5  3)
2821-C( 21  5  3)2822-C( 22  5  3)2823-C( 23  5  3)2824-C( 24  5  3)
2825-C( 25  5  3)2826-C( 26  5  3)2827-C( 27  5  3)2828-C( 28  5  3)
2829-C( 29  5  3)2830-C( 30  5  3)2831-C( 31  5  3)2832-C( 32  5  3)
2833-C( 33  5  3)2834-C( 34  5  3)2835-C( 35  5  3)2836-C( 36  5  3)
2837-C( 37  5  3)2838-C( 38  5  3)2839-C( 39  5  3)2840-C( 40  5  3)
2841-C( 41  5  3)2842-C( 42  5  3)2843-C( 43  5  3)2844-C( 44  5  3)
2845-C( 45  5  3)2846-C(  6  6  3)2847-C(  7  6  3)2848-C(  8  6  3)
2849-C(  9  6  3)2850-C( 10  6  3)2851-C( 11  6  3)2852-C( 12  6  3)
2853-C( 13  6  3)2854-C( 14  6  3)2855-C( 15  6  3)2856-C( 16  6  3)
2857-C( 17  6  3)2858-C( 18  6  3)2859-C( 19  6  3)2860-C( 20  6  3)
2861-C( 21  6  3)2862-C( 22  6  3)2863-C( 23  6  3)2864-C( 24  6  3)
2865-C( 25  6  3)2866-C( 26  6  3)2867-C( 27  6  3)2868-C( 28  6  3)
2869-C( 29  6  3)2870-C( 30  6  3)2871-C( 31  6  3)2872-C( 32  6  3)
2873-C( 33  6  3)2874-C( 34  6  3)2875-C( 35  6  3)2876-C( 36  6  3)
2877-C( 37  6  3)2878-C( 38  6  3)2879-C( 39  6  3)2880-C( 40  6  3)
2881-C( 41  6  3)2882-C( 42  6  3)2883-C( 43  6  3)2884-C( 44  6  3)
2885-C( 45  6  3)2886-C(  7  7  3)2887-C(  8  7  3)2888-C(  9  7  3)
2889-C( 10  7  3)2890-C( 11  7  3)2891-C( 12  7  3)2892-C( 13  7  3)
2893-C( 14  7  3)2894-C( 15  7  3)2895-C( 16  7  3)2896-C( 17  7  3)
2897-C( 18  7  3)2898-C( 19  7  3)2899-C( 20  7  3)2900-C( 21  7  3)
2901-C( 22  7  3)2902-C( 23  7  3)2903-C( 24  7  3)2904-C( 25  7  3)
2905-C( 26  7  3)2906-C( 27  7  3)2907-C( 28  7  3)2908-C( 29  7  3)
2909-C( 30  7  3)2910-C( 31  7  3)2911-C( 32  7  3)2912-C( 33  7  3)
2913-C( 34  7  3)2914-C( 35  7  3)2915-C( 36  7  3)2916-C( 37  7  3)
2917-C( 38  7  3)2918-C( 39  7  3)2919-C( 40  7  3)2920-C( 41  7  3)
2921-C( 42  7  3)2922-C( 43  7  3)2923-C( 44  7  3)2924-C( 45  7  3)
2925-C(  8  8  3)2926-C(  9  8  3)2927-C( 10  8  3)2928-C( 11  8  3)
2929-C( 12  8  3)2930-C( 13  8  3)2931-C( 14  8  3)2932-C( 15  8  3)
2933-C( 16  8  3)2934-C( 17  8  3)2935-C( 18  8  3)2936-C( 19  8  3)
2937-C( 20  8  3)2938-C( 21  8  3)2939-C( 22  8  3)2940-C( 23  8  3)
2941-C( 24  8  3)2942-C( 25  8  3)2943-C( 26  8  3)2944-C( 27  8  3)
2945-C( 28  8  3)2946-C( 29  8  3)2947-C( 30  8  3)2948-C( 31  8  3)
2949-C( 32  8  3)2950-C( 33  8  3)2951-C( 34  8  3)2952-C( 35  8  3)
2953-C( 36  8  3)2954-C( 37  8  3)2955-C( 38  8  3)2956-C( 39  8  3)
2957-C( 40  8  3)2958-C( 41  8  3)2959-C( 42  8  3)2960-C( 43  8  3)
2961-C( 44  8  3)2962-C( 45  8  3)2963-C(  9  9  3)2964-C( 10  9  3)
2965-C( 11  9  3)2966-C( 12  9  3)2967-C( 13  9  3)2968-C( 14  9  3)
2969-C( 15  9  3)2970-C( 16  9  3)2971-C( 17  9  3)2972-C( 18  9  3)
2973-C( 19  9  3)2974-C( 20  9  3)2975-C( 21  9  3)2976-C( 22  9  3)
2977-C( 23  9  3)2978-C( 24  9  3)2979-C( 25  9  3)2980-C( 26  9  3)
2981-C( 27  9  3)2982-C( 28  9  3)2983-C( 29  9  3)2984-C( 30  9  3)
2985-C( 31  9  3)2986-C( 32  9  3)2987-C( 33  9  3)2988-C( 34  9  3)
2989-C( 35  9  3)2990-C( 36  9  3)2991-C( 37  9  3)2992-C( 38  9  3)
2993-C( 39  9  3)2994-C( 40  9  3)2995-C( 41  9  3)2996-C( 42  9  3)
2997-C( 43  9  3)2998-C( 44  9  3)2999-C( 45  9  3)3000-C( 10 10  3)
3001-C( 11 10  3)3002-C( 12 10  3)3003-C( 13 10  3)3004-C( 14 10  3)
3005-C( 15 10  3)3006-C( 16 10  3)3007-C( 17 10  3)3008-C( 18 10  3)
3009-C( 19 10  3)3010-C( 20 10  3)3011-C( 21 10  3)3012-C( 22 10  3)
3013-C( 23 10  3)3014-C( 24 10  3)3015-C( 25 10  3)3016-C( 26 10  3)
3017-C( 27 10  3)3018-C( 28 10  3)3019-C( 29 10  3)3020-C( 30 10  3)
3021-C( 31 10  3)3022-C( 32 10  3)3023-C( 33 10  3)3024-C( 34 10  3)
3025-C( 35 10  3)3026-C( 36 10  3)3027-C( 37 10  3)3028-C( 38 10  3)
3029-C( 39 10  3)3030-C( 40 10  3)3031-C( 41 10  3)3032-C( 42 10  3)
3033-C( 43 10  3)3034-C( 44 10  3)3035-C( 45 10  3)3036-C( 11 11  3)
3037-C( 12 11  3)3038-C( 13 11  3)3039-C( 14 11  3)3040-C( 15 11  3)
3041-C( 16 11  3)3042-C( 17 11  3)3043-C( 18 11  3)3044-C( 19 11  3)
3045-C( 20 11  3)3046-C( 21 11  3)3047-C( 22 11  3)3048-C( 23 11  3)
3049-C( 24 11  3)3050-C( 25 11  3)3051-C( 26 11  3)3052-C( 27 11  3)
3053-C( 28 11  3)3054-C( 29 11  3)3055-C( 30 11  3)3056-C( 31 11  3)
3057-C( 32 11  3)3058-C( 33 11  3)3059-C( 34 11  3)3060-C( 35 11  3)
3061-C( 36 11  3)3062-C( 37 11  3)3063-C( 38 11  3)3064-C( 39 11  3)
3065-C( 40 11  3)3066-C( 41 11  3)3067-C( 42 11  3)3068-C( 43 11  3)
3069-C( 44 11  3)3070-C( 45 11  3)3071-C( 12 12  3)3072-C( 13 12  3)
3073-C( 14 12  3)3074-C( 15 12  3)3075-C( 16 12  3)3076-C( 17 12  3)
3077-C( 18 12  3)3078-C( 19 12  3)3079-C( 20 12  3)3080-C( 21 12  3)
3081-C( 22 12  3)3082-C( 23 12  3)3083-C( 24 12  3)3084-C( 25 12  3)
3085-C( 26 12  3)3086-C( 27 12  3)3087-C( 28 12  3)3088-C( 29 12  3)
3089-C( 30 12  3)3090-C( 31 12  3)3091-C( 32 12  3)3092-C( 33 12  3)
3093-C( 34 12  3)3094-C( 35 12  3)3095-C( 36 12  3)3096-C( 37 12  3)
3097-C( 38 12  3)3098-C( 39 12  3)3099-C( 40 12  3)3100-C( 41 12  3)
3101-C( 42 12  3)3102-C( 43 12  3)3103-C( 44 12  3)3104-C( 45 12  3)
3105-C( 13 13  3)3106-C( 14 13  3)3107-C( 15 13  3)3108-C( 16 13  3)
3109-C( 17 13  3)3110-C( 18 13  3)3111-C( 19 13  3)3112-C( 20 13  3)
3113-C( 21 13  3)3114-C( 22 13  3)3115-C( 23 13  3)3116-C( 24 13  3)
3117-C( 25 13  3)3118-C( 26 13  3)3119-C( 27 13  3)3120-C( 28 13  3)
3121-C( 29 13  3)3122-C( 30 13  3)3123-C( 31 13  3)3124-C( 32 13  3)
3125-C( 33 13  3)3126-C( 34 13  3)3127-C( 35 13  3)3128-C( 36 13  3)
3129-C( 37 13  3)3130-C( 38 13  3)3131-C( 39 13  3)3132-C( 40 13  3)
3133-C( 41 13  3)3134-C( 42 13  3)3135-C( 43 13  3)3136-C( 44 13  3)
3137-C( 45 13  3)3138-C( 14 14  3)3139-C( 15 14  3)3140-C( 16 14  3)
3141-C( 17 14  3)3142-C( 18 14  3)3143-C( 19 14  3)3144-C( 20 14  3)
3145-C( 21 14  3)3146-C( 22 14  3)3147-C( 23 14  3)3148-C( 24 14  3)
3149-C( 25 14  3)3150-C( 26 14  3)3151-C( 27 14  3)3152-C( 28 14  3)
3153-C( 29 14  3)3154-C( 30 14  3)3155-C( 31 14  3)3156-C( 32 14  3)
3157-C( 33 14  3)3158-C( 34 14  3)3159-C( 35 14  3)3160-C( 36 14  3)
3161-C( 37 14  3)3162-C( 38 14  3)3163-C( 39 14  3)3164-C( 40 14  3)
3165-C( 41 14  3)3166-C( 42 14  3)3167-C( 43 14  3)3168-C( 44 14  3)
3169-C( 45 14  3)3170-C( 15 15  3)3171-C( 16 15  3)3172-C( 17 15  3)
3173-C( 18 15  3)3174-C( 19 15  3)3175-C( 20 15  3)3176-C( 21 15  3)
3177-C( 22 15  3)3178-C( 23 15  3)3179-C( 24 15  3)3180-C( 25 15  3)
3181-C( 26 15  3)3182-C( 27 15  3)3183-C( 28 15  3)3184-C( 29 15  3)
3185-C( 30 15  3)3186-C( 31 15  3)3187-C( 32 15  3)3188-C( 33 15  3)
3189-C( 34 15  3)3190-C( 35 15  3)3191-C( 36 15  3)3192-C( 37 15  3)
3193-C( 38 15  3)3194-C( 39 15  3)3195-C( 40 15  3)3196-C( 41 15  3)
3197-C( 42 15  3)3198-C( 43 15  3)3199-C( 44 15  3)3200-C( 45 15  3)
3201-C( 16 16  3)3202-C( 17 16  3)3203-C( 18 16  3)3204-C( 19 16  3)
3205-C( 20 16  3)3206-C( 21 16  3)3207-C( 22 16  3)3208-C( 23 16  3)
3209-C( 24 16  3)3210-C( 25 16  3)3211-C( 26 16  3)3212-C( 27 16  3)
3213-C( 28 16  3)3214-C( 29 16  3)3215-C( 30 16  3)3216-C( 31 16  3)
3217-C( 32 16  3)3218-C( 33 16  3)3219-C( 34 16  3)3220-C( 35 16  3)
3221-C( 36 16  3)3222-C( 37 16  3)3223-C( 38 16  3)3224-C( 39 16  3)
3225-C( 40 16  3)3226-C( 41 16  3)3227-C( 42 16  3)3228-C( 43 16  3)
3229-C( 44 16  3)3230-C( 45 16  3)3231-C( 17 17  3)3232-C( 18 17  3)
3233-C( 19 17  3)3234-C( 20 17  3)3235-C( 21 17  3)3236-C( 22 17  3)
3237-C( 23 17  3)3238-C( 24 17  3)3239-C( 25 17  3)3240-C( 26 17  3)
3241-C( 27 17  3)3242-C( 28 17  3)3243-C( 29 17  3)3244-C( 30 17  3)
3245-C( 31 17  3)3246-C( 32 17  3)3247-C( 33 17  3)3248-C( 34 17  3)
3249-C( 35 17  3)3250-C( 36 17  3)3251-C( 37 17  3)3252-C( 38 17  3)
3253-C( 39 17  3)3254-C( 40 17  3)3255-C( 41 17  3)3256-C( 42 17  3)
3257-C( 43 17  3)3258-C( 44 17  3)3259-C( 45 17  3)3260-C( 18 18  3)
3261-C( 19 18  3)3262-C( 20 18  3)3263-C( 21 18  3)3264-C( 22 18  3)
3265-C( 23 18  3)3266-C( 24 18  3)3267-C( 25 18  3)3268-C( 26 18  3)
3269-C( 27 18  3)3270-C( 28 18  3)3271-C( 29 18  3)3272-C( 30 18  3)
3273-C( 31 18  3)3274-C( 32 18  3)3275-C( 33 18  3)3276-C( 34 18  3)
3277-C( 35 18  3)3278-C( 36 18  3)3279-C( 37 18  3)3280-C( 38 18  3)
3281-C( 39 18  3)3282-C( 40 18  3)3283-C( 41 18  3)3284-C( 42 18  3)
3285-C( 43 18  3)3286-C( 44 18  3)3287-C( 45 18  3)3288-C( 19 19  3)
3289-C( 20 19  3)3290-C( 21 19  3)3291-C( 22 19  3)3292-C( 23 19  3)
3293-C( 24 19  3)3294-C( 25 19  3)3295-C( 26 19  3)3296-C( 27 19  3)
3297-C( 28 19  3)3298-C( 29 19  3)3299-C( 30 19  3)3300-C( 31 19  3)
3301-C( 32 19  3)3302-C( 33 19  3)3303-C( 34 19  3)3304-C( 35 19  3)
3305-C( 36 19  3)3306-C( 37 19  3)3307-C( 38 19  3)3308-C( 39 19  3)
3309-C( 40 19  3)3310-C( 41 19  3)3311-C( 42 19  3)3312-C( 43 19  3)
3313-C( 44 19  3)3314-C( 45 19  3)3315-C( 20 20  3)3316-C( 21 20  3)
3317-C( 22 20  3)3318-C( 23 20  3)3319-C( 24 20  3)3320-C( 25 20  3)
3321-C( 26 20  3)3322-C( 27 20  3)3323-C( 28 20  3)3324-C( 29 20  3)
3325-C( 30 20  3)3326-C( 31 20  3)3327-C( 32 20  3)3328-C( 33 20  3)
3329-C( 34 20  3)3330-C( 35 20  3)3331-C( 36 20  3)3332-C( 37 20  3)
3333-C( 38 20  3)3334-C( 39 20  3)3335-C( 40 20  3)3336-C( 41 20  3)
3337-C( 42 20  3)3338-C( 43 20  3)3339-C( 44 20  3)3340-C( 45 20  3)
3341-C( 21 21  3)3342-C( 22 21  3)3343-C( 23 21  3)3344-C( 24 21  3)
3345-C( 25 21  3)3346-C( 26 21  3)3347-C( 27 21  3)3348-C( 28 21  3)
3349-C( 29 21  3)3350-C( 30 21  3)3351-C( 31 21  3)3352-C( 32 21  3)
3353-C( 33 21  3)3354-C( 34 21  3)3355-C( 35 21  3)3356-C( 36 21  3)
3357-C( 37 21  3)3358-C( 38 21  3)3359-C( 39 21  3)3360-C( 40 21  3)
3361-C( 41 21  3)3362-C( 42 21  3)3363-C( 43 21  3)3364-C( 44 21  3)
3365-C( 45 21  3)3366-C( 22 22  3)3367-C( 23 22  3)3368-C( 24 22  3)
3369-C( 25 22  3)3370-C( 26 22  3)3371-C( 27 22  3)3372-C( 28 22  3)
3373-C( 29 22  3)3374-C( 30 22  3)3375-C( 31 22  3)3376-C( 32 22  3)
3377-C( 33 22  3)3378-C( 34 22  3)3379-C( 35 22  3)3380-C( 36 22  3)
3381-C( 37 22  3)3382-C( 38 22  3)3383-C( 39 22  3)3384-C( 40 22  3)
3385-C( 41 22  3)3386-C( 42 22  3)3387-C( 43 22  3)3388-C( 44 22  3)
3389-C( 45 22  3)3390-C( 23 23  3)3391-C( 24 23  3)3392-C( 25 23  3)
3393-C( 26 23  3)3394-C( 27 23  3)3395-C( 28 23  3)3396-C( 29 23  3)
3397-C( 30 23  3)3398-C( 31 23  3)3399-C( 32 23  3)3400-C( 33 23  3)
3401-C( 34 23  3)3402-C( 35 23  3)3403-C( 36 23  3)3404-C( 37 23  3)
3405-C( 38 23  3)3406-C( 39 23  3)3407-C( 40 23  3)3408-C( 41 23  3)
3409-C( 42 23  3)3410-C( 43 23  3)3411-C( 44 23  3)3412-C( 45 23  3)
3413-C( 24 24  3)3414-C( 25 24  3)3415-C( 26 24  3)3416-C( 27 24  3)
3417-C( 28 24  3)3418-C( 29 24  3)3419-C( 30 24  3)3420-C( 31 24  3)
3421-C( 32 24  3)3422-C( 33 24  3)3423-C( 34 24  3)3424-C( 35 24  3)
3425-C( 36 24  3)3426-C( 37 24  3)3427-C( 38 24  3)3428-C( 39 24  3)
3429-C( 40 24  3)3430-C( 41 24  3)3431-C( 42 24  3)3432-C( 43 24  3)
3433-C( 44 24  3)3434-C( 45 24  3)3435-C( 25 25  3)3436-C( 26 25  3)
3437-C( 27 25  3)3438-C( 28 25  3)3439-C( 29 25  3)3440-C( 30 25  3)
3441-C( 31 25  3)3442-C( 32 25  3)3443-C( 33 25  3)3444-C( 34 25  3)
3445-C( 35 25  3)3446-C( 36 25  3)3447-C( 37 25  3)3448-C( 38 25  3)
3449-C( 39 25  3)3450-C( 40 25  3)3451-C( 41 25  3)3452-C( 42 25  3)
3453-C( 43 25  3)3454-C( 44 25  3)3455-C( 26 26  3)3456-C( 27 26  3)
3457-C( 28 26  3)3458-C( 29 26  3)3459-C( 30 26  3)3460-C( 31 26  3)
3461-C( 32 26  3)3462-C( 33 26  3)3463-C( 34 26  3)3464-C( 35 26  3)
3465-C( 36 26  3)3466-C( 37 26  3)3467-C( 38 26  3)3468-C( 39 26  3)
3469-C( 40 26  3)3470-C( 41 26  3)3471-C( 42 26  3)3472-C( 43 26  3)
3473-C( 44 26  3)3474-C( 27 27  3)3475-C( 28 27  3)3476-C( 29 27  3)
3477-C( 30 27  3)3478-C( 31 27  3)3479-C( 32 27  3)3480-C( 33 27  3)
3481-C( 34 27  3)3482-C( 35 27  3)3483-C( 36 27  3)3484-C( 37 27  3)
3485-C( 38 27  3)3486-C( 39 27  3)3487-C( 40 27  3)3488-C( 41 27  3)
3489-C( 42 27  3)3490-C( 43 27  3)3491-C( 44 27  3)3492-C( 28 28  3)
3493-C( 29 28  3)3494-C( 30 28  3)3495-C( 31 28  3)3496-C( 32 28  3)
3497-C( 33 28  3)3498-C( 34 28  3)3499-C( 35 28  3)3500-C( 36 28  3)
3501-C( 37 28  3)3502-C( 38 28  3)3503-C( 39 28  3)3504-C( 40 28  3)
3505-C( 41 28  3)3506-C( 42 28  3)3507-C( 43 28  3)3508-C( 44 28  3)
3509-C( 29 29  3)3510-C( 30 29  3)3511-C( 31 29  3)3512-C( 32 29  3)
3513-C( 33 29  3)3514-C( 34 29  3)3515-C( 35 29  3)3516-C( 36 29  3)
3517-C( 37 29  3)3518-C( 38 29  3)3519-C( 39 29  3)3520-C( 40 29  3)
3521-C( 41 29  3)3522-C( 42 29  3)3523-C( 43 29  3)3524-C( 44 29  3)
3525-C( 30 30  3)3526-C( 31 30  3)3527-C( 32 30  3)3528-C( 33 30  3)
3529-C( 34 30  3)3530-C( 35 30  3)3531-C( 36 30  3)3532-C( 37 30  3)
3533-C( 38 30  3)3534-C( 39 30  3)3535-C( 40 30  3)3536-C( 41 30  3)
3537-C( 42 30  3)3538-C( 43 30  3)3539-C( 44 30  3)3540-C( 31 31  3)
3541-C( 32 31  3)3542-C( 33 31  3)3543-C( 34 31  3)3544-C( 35 31  3)
3545-C( 36 31  3)3546-C( 37 31  3)3547-C( 38 31  3)3548-C( 39 31  3)
3549-C( 40 31  3)3550-C( 41 31  3)3551-C( 42 31  3)3552-C( 43 31  3)
3553-C( 44 31  3)3554-C( 32 32  3)3555-C( 33 32  3)3556-C( 34 32  3)
3557-C( 35 32  3)3558-C( 36 32  3)3559-C( 37 32  3)3560-C( 38 32  3)
3561-C( 39 32  3)3562-C( 40 32  3)3563-C( 41 32  3)3564-C( 42 32  3)
3565-C( 43 32  3)3566-C( 44 32  3)3567-C( 33 33  3)3568-C( 34 33  3)
3569-C( 35 33  3)3570-C( 36 33  3)3571-C( 37 33  3)3572-C( 38 33  3)
3573-C( 39 33  3)3574-C( 40 33  3)3575-C( 41 33  3)3576-C( 42 33  3)
3577-C( 43 33  3)3578-C( 44 33  3)3579-C( 34 34  3)3580-C( 35 34  3)
3581-C( 36 34  3)3582-C( 37 34  3)3583-C( 38 34  3)3584-C( 39 34  3)
3585-C( 40 34  3)3586-C( 41 34  3)3587-C( 42 34  3)3588-C( 43 34  3)
3589-C( 44 34  3)3590-C( 35 35  3)3591-C( 36 35  3)3592-C( 37 35  3)
3593-C( 38 35  3)3594-C( 39 35  3)3595-C( 40 35  3)3596-C( 41 35  3)
3597-C( 42 35  3)3598-C( 43 35  3)3599-C( 44 35  3)3600-C( 36 36  3)
3601-C( 37 36  3)3602-C( 38 36  3)3603-C( 39 36  3)3604-C( 40 36  3)
3605-C( 41 36  3)3606-C( 42 36  3)3607-C( 43 36  3)3608-C( 44 36  3)
3609-C( 37 37  3)3610-C( 38 37  3)3611-C( 39 37  3)3612-C( 40 37  3)
3613-C( 41 37  3)3614-C( 42 37  3)3615-C( 43 37  3)3616-C( 44 37  3)
3617-C( 38 38  3)3618-C( 39 38  3)3619-C( 40 38  3)3620-C( 41 38  3)
3621-C( 42 38  3)3622-C( 43 38  3)3623-C( 44 38  3)3624-C( 39 39  3)
3625-C( 40 39  3)3626-C( 41 39  3)3627-C( 42 39  3)3628-C( 43 39  3)
3629-C( 44 39  3)3630-C( 40 40  3)3631-C( 41 40  3)3632-C( 42 40  3)
3633-C( 43 40  3)3634-C( 44 40  3)3635-C( 41 41  3)3636-C( 42 41  3)
3637-C( 43 41  3)3638-C( 44 41  3)3639-C( 42 42  3)3640-C( 43 42  3)
3641-C( 44 42  3)3642-C( 43 43  3)3643-C( 44 43  3)3644-C( 44 44  3)
3645-C(  4  4  4)3646-C(  5  4  4)3647-C(  6  4  4)3648-C(  7  4  4)
3649-C(  8  4  4)3650-C(  9  4  4)3651-C( 10  4  4)3652-C( 11  4  4)
3653-C( 12  4  4)3654-C( 13  4  4)3655-C( 14  4  4)3656-C( 15  4  4)
3657-C( 16  4  4)3658-C( 17  4  4)3659-C( 18  4  4)3660-C( 19  4  4)
3661-C( 20  4  4)3662-C( 21  4  4)3663-C( 22  4  4)3664-C( 23  4  4)
3665-C( 24  4  4)3666-C( 25  4  4)3667-C( 26  4  4)3668-C( 27  4  4)
3669-C( 28  4  4)3670-C( 29  4  4)3671-C( 30  4  4)3672-C( 31  4  4)
3673-C( 32  4  4)3674-C( 33  4  4)3675-C( 34  4  4)3676-C( 35  4  4)
3677-C( 36  4  4)3678-C( 37  4  4)3679-C( 38  4  4)3680-C( 39  4  4)
3681-C( 40  4  4)3682-C( 41  4  4)3683-C( 42  4  4)3684-C( 43  4  4)
3685-C( 44  4  4)3686-C(  5  5  4)3687-C(  6  5  4)3688-C(  7  5  4)
3689-C(  8  5  4)3690-C(  9  5  4)3691-C( 10  5  4)3692-C( 11  5  4)
3693-C( 12  5  4)3694-C( 13  5  4)3695-C( 14  5  4)3696-C( 15  5  4)
3697-C( 16  5  4)3698-C( 17  5  4)3699-C( 18  5  4)3700-C( 19  5  4)
3701-C( 20  5  4)3702-C( 21  5  4)3703-C( 22  5  4)3704-C( 23  5  4)
3705-C( 24  5  4)3706-C( 25  5  4)3707-C( 26  5  4)3708-C( 27  5  4)
3709-C( 28  5  4)3710-C( 29  5  4)3711-C( 30  5  4)3712-C( 31  5  4)
3713-C( 32  5  4)3714-C( 33  5  4)3715-C( 34  5  4)3716-C( 35  5  4)
3717-C( 36  5  4)3718-C( 37  5  4)3719-C( 38  5  4)3720-C( 39  5  4)
3721-C( 40  5  4)3722-C( 41  5  4)3723-C( 42  5  4)3724-C( 43  5  4)
3725-C( 44  5  4)3726-C(  6  6  4)3727-C(  7  6  4)3728-C(  8  6  4)
3729-C(  9  6  4)3730-C( 10  6  4)3731-C( 11  6  4)3732-C( 12  6  4)
3733-C( 13  6  4)3734-C( 14  6  4)3735-C( 15  6  4)3736-C( 16  6  4)
3737-C( 17  6  4)3738-C( 18  6  4)3739-C( 19  6  4)3740-C( 20  6  4)
3741-C( 21  6  4)3742-C( 22  6  4)3743-C( 23  6  4)3744-C( 24  6  4)
3745-C( 25  6  4)3746-C( 26  6  4)3747-C( 27  6  4)3748-C( 28  6  4)
3749-C( 29  6  4)3750-C( 30  6  4)3751-C( 31  6  4)3752-C( 32  6  4)
3753-C( 33  6  4)3754-C( 34  6  4)3755-C( 35  6  4)3756-C( 36  6  4)
3757-C( 37  6  4)3758-C( 38  6  4)3759-C( 39  6  4)3760-C( 40  6  4)
3761-C( 41  6  4)3762-C( 42  6  4)3763-C( 43  6  4)3764-C( 44  6  4)
3765-C(  7  7  4)3766-C(  8  7  4)3767-C(  9  7  4)3768-C( 10  7  4)
3769-C( 11  7  4)3770-C( 12  7  4)3771-C( 13  7  4)3772-C( 14  7  4)
3773-C( 15  7  4)3774-C( 16  7  4)3775-C( 17  7  4)3776-C( 18  7  4)
3777-C( 19  7  4)3778-C( 20  7  4)3779-C( 21  7  4)3780-C( 22  7  4)
3781-C( 23  7  4)3782-C( 24  7  4)3783-C( 25  7  4)3784-C( 26  7  4)
3785-C( 27  7  4)3786-C( 28  7  4)3787-C( 29  7  4)3788-C( 30  7  4)
3789-C( 31  7  4)3790-C( 32  7  4)3791-C( 33  7  4)3792-C( 34  7  4)
3793-C( 35  7  4)3794-C( 36  7  4)3795-C( 37  7  4)3796-C( 38  7  4)
3797-C( 39  7  4)3798-C( 40  7  4)3799-C( 41  7  4)3800-C( 42  7  4)
3801-C( 43  7  4)3802-C( 44  7  4)3803-C(  8  8  4)3804-C(  9  8  4)
3805-C( 10  8  4)3806-C( 11  8  4)3807-C( 12  8  4)3808-C( 13  8  4)
3809-C( 14  8  4)3810-C( 15  8  4)3811-C( 16  8  4)3812-C( 17  8  4)
3813-C( 18  8  4)3814-C( 19  8  4)3815-C( 20  8  4)3816-C( 21  8  4)
3817-C( 22  8  4)3818-C( 23  8  4)3819-C( 24  8  4)3820-C( 25  8  4)
3821-C( 26  8  4)3822-C( 27  8  4)3823-C( 28  8  4)3824-C( 29  8  4)
3825-C( 30  8  4)3826-C( 31  8  4)3827-C( 32  8  4)3828-C( 33  8  4)
3829-C( 34  8  4)3830-C( 35  8  4)3831-C( 36  8  4)3832-C( 37  8  4)
3833-C( 38  8  4)3834-C( 39  8  4)3835-C( 40  8  4)3836-C( 41  8  4)
3837-C( 42  8  4)3838-C( 43  8  4)3839-C( 44  8  4)3840-C(  9  9  4)
3841-C( 10  9  4)3842-C( 11  9  4)3843-C( 12  9  4)3844-C( 13  9  4)
3845-C( 14  9  4)3846-C( 15  9  4)3847-C( 16  9  4)3848-C( 17  9  4)
3849-C( 18  9  4)3850-C( 19  9  4)3851-C( 20  9  4)3852-C( 21  9  4)
3853-C( 22  9  4)3854-C( 23  9  4)3855-C( 24  9  4)3856-C( 25  9  4)
3857-C( 26  9  4)3858-C( 27  9  4)3859-C( 28  9  4)3860-C( 29  9  4)
3861-C( 30  9  4)3862-C( 31  9  4)3863-C( 32  9  4)3864-C( 33  9  4)
3865-C( 34  9  4)3866-C( 35  9  4)3867-C( 36  9  4)3868-C( 37  9  4)
3869-C( 38  9  4)3870-C( 39  9  4)3871-C( 40  9  4)3872-C( 41  9  4)
3873-C( 42  9  4)3874-C( 43  9  4)3875-C( 44  9  4)3876-C( 10 10  4)
3877-C( 11 10  4)3878-C( 12 10  4)3879-C( 13 10  4)3880-C( 14 10  4)
3881-C( 15 10  4)3882-C( 16 10  4)3883-C( 17 10  4)3884-C( 18 10  4)
3885-C( 19 10  4)3886-C( 20 10  4)3887-C( 21 10  4)3888-C( 22 10  4)
3889-C( 23 10  4)3890-C( 24 10  4)3891-C( 25 10  4)3892-C( 26 10  4)
3893-C( 27 10  4)3894-C( 28 10  4)3895-C( 29 10  4)3896-C( 30 10  4)
3897-C( 31 10  4)3898-C( 32 10  4)3899-C( 33 10  4)3900-C( 34 10  4)
3901-C( 35 10  4)3902-C( 36 10  4)3903-C( 37 10  4)3904-C( 38 10  4)
3905-C( 39 10  4)3906-C( 40 10  4)3907-C( 41 10  4)3908-C( 42 10  4)
3909-C( 43 10  4)3910-C( 44 10  4)3911-C( 11 11  4)3912-C( 12 11  4)
3913-C( 13 11  4)3914-C( 14 11  4)3915-C( 15 11  4)3916-C( 16 11  4)
3917-C( 17 11  4)3918-C( 18 11  4)3919-C( 19 11  4)3920-C( 20 11  4)
3921-C( 21 11  4)3922-C( 22 11  4)3923-C( 23 11  4)3924-C( 24 11  4)
3925-C( 25 11  4)3926-C( 26 11  4)3927-C( 27 11  4)3928-C( 28 11  4)
3929-C( 29 11  4)3930-C( 30 11  4)3931-C( 31 11  4)3932-C( 32 11  4)
3933-C( 33 11  4)3934-C( 34 11  4)3935-C( 35 11  4)3936-C( 36 11  4)
3937-C( 37 11  4)3938-C( 38 11  4)3939-C( 39 11  4)3940-C( 40 11  4)
3941-C( 41 11  4)3942-C( 42 11  4)3943-C( 43 11  4)3944-C( 44 11  4)
3945-C( 12 12  4)3946-C( 13 12  4)3947-C( 14 12  4)3948-C( 15 12  4)
3949-C( 16 12  4)3950-C( 17 12  4)3951-C( 18 12  4)3952-C( 19 12  4)
3953-C( 20 12  4)3954-C( 21 12  4)3955-C( 22 12  4)3956-C( 23 12  4)
3957-C( 24 12  4)3958-C( 25 12  4)3959-C( 26 12  4)3960-C( 27 12  4)
3961-C( 28 12  4)3962-C( 29 12  4)3963-C( 30 12  4)3964-C( 31 12  4)
3965-C( 32 12  4)3966-C( 33 12  4)3967-C( 34 12  4)3968-C( 35 12  4)
3969-C( 36 12  4)3970-C( 37 12  4)3971-C( 38 12  4)3972-C( 39 12  4)
3973-C( 40 12  4)3974-C( 41 12  4)3975-C( 42 12  4)3976-C( 43 12  4)
3977-C( 44 12  4)3978-C( 13 13  4)3979-C( 14 13  4)3980-C( 15 13  4)
3981-C( 16 13  4)3982-C( 17 13  4)3983-C( 18 13  4)3984-C( 19 13  4)
3985-C( 20 13  4)3986-C( 21 13  4)3987-C( 22 13  4)3988-C( 23 13  4)
3989-C( 24 13  4)3990-C( 25 13  4)3991-C( 26 13  4)3992-C( 27 13  4)
3993-C( 28 13  4)3994-C( 29 13  4)3995-C( 30 13  4)3996-C( 31 13  4)
3997-C( 32 13  4)3998-C( 33 13  4)3999-C( 34 13  4)4000-C( 35 13  4)
4001-C( 36 13  4)4002-C( 37 13  4)4003-C( 38 13  4)4004-C( 39 13  4)
4005-C( 40 13  4)4006-C( 41 13  4)4007-C( 42 13  4)4008-C( 43 13  4)
4009-C( 44 13  4)4010-C( 14 14  4)4011-C( 15 14  4)4012-C( 16 14  4)
4013-C( 17 14  4)4014-C( 18 14  4)4015-C( 19 14  4)4016-C( 20 14  4)
4017-C( 21 14  4)4018-C( 22 14  4)4019-C( 23 14  4)4020-C( 24 14  4)
4021-C( 25 14  4)4022-C( 26 14  4)4023-C( 27 14  4)4024-C( 28 14  4)
4025-C( 29 14  4)4026-C( 30 14  4)4027-C( 31 14  4)4028-C( 32 14  4)
4029-C( 33 14  4)4030-C( 34 14  4)4031-C( 35 14  4)4032-C( 36 14  4)
4033-C( 37 14  4)4034-C( 38 14  4)4035-C( 39 14  4)4036-C( 40 14  4)
4037-C( 41 14  4)4038-C( 42 14  4)4039-C( 43 14  4)4040-C( 44 14  4)
4041-C( 15 15  4)4042-C( 16 15  4)4043-C( 17 15  4)4044-C( 18 15  4)
4045-C( 19 15  4)4046-C( 20 15  4)4047-C( 21 15  4)4048-C( 22 15  4)
4049-C( 23 15  4)4050-C( 24 15  4)4051-C( 25 15  4)4052-C( 26 15  4)
4053-C( 27 15  4)4054-C( 28 15  4)4055-C( 29 15  4)4056-C( 30 15  4)
4057-C( 31 15  4)4058-C( 32 15  4)4059-C( 33 15  4)4060-C( 34 15  4)
4061-C( 35 15  4)4062-C( 36 15  4)4063-C( 37 15  4)4064-C( 38 15  4)
4065-C( 39 15  4)4066-C( 40 15  4)4067-C( 41 15  4)4068-C( 42 15  4)
4069-C( 43 15  4)4070-C( 44 15  4)4071-C( 16 16  4)4072-C( 17 16  4)
4073-C( 18 16  4)4074-C( 19 16  4)4075-C( 20 16  4)4076-C( 21 16  4)
4077-C( 22 16  4)4078-C( 23 16  4)4079-C( 24 16  4)4080-C( 25 16  4)
4081-C( 26 16  4)4082-C( 27 16  4)4083-C( 28 16  4)4084-C( 29 16  4)
4085-C( 30 16  4)4086-C( 31 16  4)4087-C( 32 16  4)4088-C( 33 16  4)
4089-C( 34 16  4)4090-C( 35 16  4)4091-C( 36 16  4)4092-C( 37 16  4)
4093-C( 38 16  4)4094-C( 39 16  4)4095-C( 40 16  4)4096-C( 41 16  4)
4097-C( 42 16  4)4098-C( 43 16  4)4099-C( 44 16  4)4100-C( 17 17  4)
4101-C( 18 17  4)4102-C( 19 17  4)4103-C( 20 17  4)4104-C( 21 17  4)
4105-C( 22 17  4)4106-C( 23 17  4)4107-C( 24 17  4)4108-C( 25 17  4)
4109-C( 26 17  4)4110-C( 27 17  4)4111-C( 28 17  4)4112-C( 29 17  4)
4113-C( 30 17  4)4114-C( 31 17  4)4115-C( 32 17  4)4116-C( 33 17  4)
4117-C( 34 17  4)4118-C( 35 17  4)4119-C( 36 17  4)4120-C( 37 17  4)
4121-C( 38 17  4)4122-C( 39 17  4)4123-C( 40 17  4)4124-C( 41 17  4)
4125-C( 42 17  4)4126-C( 43 17  4)4127-C( 44 17  4)4128-C( 18 18  4)
4129-C( 19 18  4)4130-C( 20 18  4)4131-C( 21 18  4)4132-C( 22 18  4)
4133-C( 23 18  4)4134-C( 24 18  4)4135-C( 25 18  4)4136-C( 26 18  4)
4137-C( 27 18  4)4138-C( 28 18  4)4139-C( 29 18  4)4140-C( 30 18  4)
4141-C( 31 18  4)4142-C( 32 18  4)4143-C( 33 18  4)4144-C( 34 18  4)
4145-C( 35 18  4)4146-C( 36 18  4)4147-C( 37 18  4)4148-C( 38 18  4)
4149-C( 39 18  4)4150-C( 40 18  4)4151-C( 41 18  4)4152-C( 42 18  4)
4153-C( 43 18  4)4154-C( 44 18  4)4155-C( 19 19  4)4156-C( 20 19  4)
4157-C( 21 19  4)4158-C( 22 19  4)4159-C( 23 19  4)4160-C( 24 19  4)
4161-C( 25 19  4)4162-C( 26 19  4)4163-C( 27 19  4)4164-C( 28 19  4)
4165-C( 29 19  4)4166-C( 30 19  4)4167-C( 31 19  4)4168-C( 32 19  4)
4169-C( 33 19  4)4170-C( 34 19  4)4171-C( 35 19  4)4172-C( 36 19  4)
4173-C( 37 19  4)4174-C( 38 19  4)4175-C( 39 19  4)4176-C( 40 19  4)
4177-C( 41 19  4)4178-C( 42 19  4)4179-C( 43 19  4)4180-C( 44 19  4)
4181-C( 20 20  4)4182-C( 21 20  4)4183-C( 22 20  4)4184-C( 23 20  4)
4185-C( 24 20  4)4186-C( 25 20  4)4187-C( 26 20  4)4188-C( 27 20  4)
4189-C( 28 20  4)4190-C( 29 20  4)4191-C( 30 20  4)4192-C( 31 20  4)
4193-C( 32 20  4)4194-C( 33 20  4)4195-C( 34 20  4)4196-C( 35 20  4)
4197-C( 36 20  4)4198-C( 37 20  4)4199-C( 38 20  4)4200-C( 39 20  4)
4201-C( 40 20  4)4202-C( 41 20  4)4203-C( 42 20  4)4204-C( 43 20  4)
4205-C( 44 20  4)4206-C( 21 21  4)4207-C( 22 21  4)4208-C( 23 21  4)
4209-C( 24 21  4)4210-C( 25 21  4)4211-C( 26 21  4)4212-C( 27 21  4)
4213-C( 28 21  4)4214-C( 29 21  4)4215-C( 30 21  4)4216-C( 31 21  4)
4217-C( 32 21  4)4218-C( 33 21  4)4219-C( 34 21  4)4220-C( 35 21  4)
4221-C( 36 21  4)4222-C( 37 21  4)4223-C( 38 21  4)4224-C( 39 21  4)
[...]
8797-C( 23 19 13)8798-C( 24 19 13)8799-C( 25 19 13)8800-C( 26 19 13)
8801-C( 27 19 13)8802-C( 28 19 13)8803-C( 29 19 13)8804-C( 30 19 13)
8805-C( 31 19 13)8806-C( 32 19 13)8807-C( 33 19 13)8808-C( 34 19 13)
8809-C( 35 19 13)8810-C( 20 20 13)8811-C( 21 20 13)8812-C( 22 20 13)
8813-C( 23 20 13)8814-C( 24 20 13)8815-C( 25 20 13)8816-C( 26 20 13)
8817-C( 27 20 13)8818-C( 28 20 13)8819-C( 29 20 13)8820-C( 30 20 13)
8821-C( 31 20 13)8822-C( 32 20 13)8823-C( 33 20 13)8824-C( 34 20 13)
8825-C( 35 20 13)8826-C( 21 21 13)8827-C( 22 21 13)8828-C( 23 21 13)
8829-C( 24 21 13)8830-C( 25 21 13)8831-C( 26 21 13)8832-C( 27 21 13)
8833-C( 28 21 13)8834-C( 29 21 13)8835-C( 30 21 13)8836-C( 31 21 13)
8837-C( 32 21 13)8838-C( 33 21 13)8839-C( 34 21 13)8840-C( 35 21 13)
8841-C( 22 22 13)8842-C( 23 22 13)8843-C( 24 22 13)8844-C( 25 22 13)
8845-C( 26 22 13)8846-C( 27 22 13)8847-C( 28 22 13)8848-C( 29 22 13)
8849-C( 30 22 13)8850-C( 31 22 13)8851-C( 32 22 13)8852-C( 33 22 13)
8853-C( 34 22 13)8854-C( 35 22 13)8855-C( 23 23 13)8856-C( 24 23 13)
8857-C( 25 23 13)8858-C( 26 23 13)8859-C( 27 23 13)8860-C( 28 23 13)
8861-C( 29 23 13)8862-C( 30 23 13)8863-C( 31 23 13)8864-C( 32 23 13)
8865-C( 33 23 13)8866-C( 34 23 13)8867-C( 35 23 13)8868-C( 24 24 13)
8869-C( 25 24 13)8870-C( 26 24 13)8871-C( 27 24 13)8872-C( 28 24 13)
8873-C( 29 24 13)8874-C( 30 24 13)8875-C( 31 24 13)8876-C( 32 24 13)
8877-C( 33 24 13)8878-C( 34 24 13)8879-C( 35 24 13)8880-C( 25 25 13)
8881-C( 26 25 13)8882-C( 27 25 13)8883-C( 28 25 13)8884-C( 29 25 13)
8885-C( 30 25 13)8886-C( 31 25 13)8887-C( 32 25 13)8888-C( 33 25 13)
8889-C( 34 25 13)8890-C( 26 26 13)8891-C( 27 26 13)8892-C( 28 26 13)
8893-C( 29 26 13)8894-C( 30 26 13)8895-C( 31 26 13)8896-C( 32 26 13)
8897-C( 33 26 13)8898-C( 34 26 13)8899-C( 27 27 13)8900-C( 28 27 13)
8901-C( 29 27 13)8902-C( 30 27 13)8903-C( 31 27 13)8904-C( 32 27 13)
8905-C( 33 27 13)8906-C( 34 27 13)8907-C( 28 28 13)8908-C( 29 28 13)
8909-C( 30 28 13)8910-C( 31 28 13)8911-C( 32 28 13)8912-C( 33 28 13)
8913-C( 34 28 13)8914-C( 29 29 13)8915-C( 30 29 13)8916-C( 31 29 13)
8917-C( 32 29 13)8918-C( 33 29 13)8919-C( 34 29 13)8920-C( 30 30 13)
8921-C( 31 30 13)8922-C( 32 30 13)8923-C( 33 30 13)8924-C( 34 30 13)
8925-C( 31 31 13)8926-C( 32 31 13)8927-C( 33 31 13)8928-C( 34 31 13)
8929-C( 32 32 13)8930-C( 33 32 13)8931-C( 34 32 13)8932-C( 33 33 13)
8933-C( 34 33 13)8934-C( 34 34 13)8935-C( 14 14 14)8936-C( 15 14 14)
8937-C( 16 14 14)8938-C( 17 14 14)8939-C( 18 14 14)8940-C( 19 14 14)
8941-C( 20 14 14)8942-C( 21 14 14)8943-C( 22 14 14)8944-C( 23 14 14)
8945-C( 24 14 14)8946-C( 25 14 14)8947-C( 26 14 14)8948-C( 27 14 14)
8949-C( 28 14 14)8950-C( 29 14 14)8951-C( 30 14 14)8952-C( 31 14 14)
8953-C( 32 14 14)8954-C( 33 14 14)8955-C( 34 14 14)8956-C( 15 15 14)
8957-C( 16 15 14)8958-C( 17 15 14)8959-C( 18 15 14)8960-C( 19 15 14)
8961-C( 20 15 14)8962-C( 21 15 14)8963-C( 22 15 14)8964-C( 23 15 14)
8965-C( 24 15 14)8966-C( 25 15 14)8967-C( 26 15 14)8968-C( 27 15 14)
8969-C( 28 15 14)8970-C( 29 15 14)8971-C( 30 15 14)8972-C( 31 15 14)
8973-C( 32 15 14)8974-C( 33 15 14)8975-C( 34 15 14)8976-C( 16 16 14)
8977-C( 17 16 14)8978-C( 18 16 14)8979-C( 19 16 14)8980-C( 20 16 14)
8981-C( 21 16 14)8982-C( 22 16 14)8983-C( 23 16 14)8984-C( 24 16 14)
8985-C( 25 16 14)8986-C( 26 16 14)8987-C( 27 16 14)8988-C( 28 16 14)
8989-C( 29 16 14)8990-C( 30 16 14)8991-C( 31 16 14)8992-C( 32 16 14)
8993-C( 33 16 14)8994-C( 34 16 14)8995-C( 17 17 14)8996-C( 18 17 14)
8997-C( 19 17 14)8998-C( 20 17 14)8999-C( 21 17 14)9000-C( 22 17 14)
9001-C( 23 17 14)9002-C( 24 17 14)9003-C( 25 17 14)9004-C( 26 17 14)
9005-C( 27 17 14)9006-C( 28 17 14)9007-C( 29 17 14)9008-C( 30 17 14)
9009-C( 31 17 14)9010-C( 32 17 14)9011-C( 33 17 14)9012-C( 34 17 14)
9013-C( 18 18 14)9014-C( 19 18 14)9015-C( 20 18 14)9016-C( 21 18 14)
9017-C( 22 18 14)9018-C( 23 18 14)9019-C( 24 18 14)9020-C( 25 18 14)
9021-C( 26 18 14)9022-C( 27 18 14)9023-C( 28 18 14)9024-C( 29 18 14)
9025-C( 30 18 14)9026-C( 31 18 14)9027-C( 32 18 14)9028-C( 33 18 14)
9029-C( 34 18 14)9030-C( 19 19 14)9031-C( 20 19 14)9032-C( 21 19 14)
9033-C( 22 19 14)9034-C( 23 19 14)9035-C( 24 19 14)9036-C( 25 19 14)
9037-C( 26 19 14)9038-C( 27 19 14)9039-C( 28 19 14)9040-C( 29 19 14)
9041-C( 30 19 14)9042-C( 31 19 14)9043-C( 32 19 14)9044-C( 33 19 14)
9045-C( 34 19 14)9046-C( 20 20 14)9047-C( 21 20 14)9048-C( 22 20 14)
9049-C( 23 20 14)9050-C( 24 20 14)9051-C( 25 20 14)9052-C( 26 20 14)
9053-C( 27 20 14)9054-C( 28 20 14)9055-C( 29 20 14)9056-C( 30 20 14)
9057-C( 31 20 14)9058-C( 32 20 14)9059-C( 33 20 14)9060-C( 34 20 14)
9061-C( 21 21 14)9062-C( 22 21 14)9063-C( 23 21 14)9064-C( 24 21 14)
9065-C( 25 21 14)9066-C( 26 21 14)9067-C( 27 21 14)9068-C( 28 21 14)
9069-C( 29 21 14)9070-C( 30 21 14)9071-C( 31 21 14)9072-C( 32 21 14)
9073-C( 33 21 14)9074-C( 34 21 14)9075-C( 22 22 14)9076-C( 23 22 14)
9077-C( 24 22 14)9078-C( 25 22 14)9079-C( 26 22 14)9080-C( 27 22 14)
9081-C( 28 22 14)9082-C( 29 22 14)9083-C( 30 22 14)9084-C( 31 22 14)
9085-C( 32 22 14)9086-C( 33 22 14)9087-C( 34 22 14)9088-C( 23 23 14)
9089-C( 24 23 14)9090-C( 25 23 14)9091-C( 26 23 14)9092-C( 27 23 14)
9093-C( 28 23 14)9094-C( 29 23 14)9095-C( 30 23 14)9096-C( 31 23 14)
9097-C( 32 23 14)9098-C( 33 23 14)9099-C( 34 23 14)9100-C( 24 24 14)
9101-C( 25 24 14)9102-C( 26 24 14)9103-C( 27 24 14)9104-C( 28 24 14)
9105-C( 29 24 14)9106-C( 30 24 14)9107-C( 31 24 14)9108-C( 32 24 14)
9109-C( 33 24 14)9110-C( 34 24 14)9111-C( 25 25 14)9112-C( 26 25 14)
9113-C( 27 25 14)9114-C( 28 25 14)9115-C( 29 25 14)9116-C( 30 25 14)
9117-C( 31 25 14)9118-C( 32 25 14)9119-C( 33 25 14)9120-C( 26 26 14)
9121-C( 27 26 14)9122-C( 28 26 14)9123-C( 29 26 14)9124-C( 30 26 14)
9125-C( 31 26 14)9126-C( 32 26 14)9127-C( 33 26 14)9128-C( 27 27 14)
9129-C( 28 27 14)9130-C( 29 27 14)9131-C( 30 27 14)9132-C( 31 27 14)
9133-C( 32 27 14)9134-C( 33 27 14)9135-C( 28 28 14)9136-C( 29 28 14)
9137-C( 30 28 14)9138-C( 31 28 14)9139-C( 32 28 14)9140-C( 33 28 14)
9141-C( 29 29 14)9142-C( 30 29 14)9143-C( 31 29 14)9144-C( 32 29 14)
9145-C( 33 29 14)9146-C( 30 30 14)9147-C( 31 30 14)9148-C( 32 30 14)
9149-C( 33 30 14)9150-C( 31 31 14)9151-C( 32 31 14)9152-C( 33 31 14)
9153-C( 32 32 14)9154-C( 33 32 14)9155-C( 33 33 14)9156-C( 15 15 15)
9157-C( 16 15 15)9158-C( 17 15 15)9159-C( 18 15 15)9160-C( 19 15 15)
9161-C( 20 15 15)9162-C( 21 15 15)9163-C( 22 15 15)9164-C( 23 15 15)
9165-C( 24 15 15)9166-C( 25 15 15)9167-C( 26 15 15)9168-C( 27 15 15)
9169-C( 28 15 15)9170-C( 29 15 15)9171-C( 30 15 15)9172-C( 31 15 15)
9173-C( 32 15 15)9174-C( 33 15 15)9175-C( 16 16 15)9176-C( 17 16 15)
9177-C( 18 16 15)9178-C( 19 16 15)9179-C( 20 16 15)9180-C( 21 16 15)
9181-C( 22 16 15)9182-C( 23 16 15)9183-C( 24 16 15)9184-C( 25 16 15)
9185-C( 26 16 15)9186-C( 27 16 15)9187-C( 28 16 15)9188-C( 29 16 15)
9189-C( 30 16 15)9190-C( 31 16 15)9191-C( 32 16 15)9192-C( 33 16 15)
9193-C( 17 17 15)9194-C( 18 17 15)9195-C( 19 17 15)9196-C( 20 17 15)
9197-C( 21 17 15)9198-C( 22 17 15)9199-C( 23 17 15)9200-C( 24 17 15)
9201-C( 25 17 15)9202-C( 26 17 15)9203-C( 27 17 15)9204-C( 28 17 15)
9205-C( 29 17 15)9206-C( 30 17 15)9207-C( 31 17 15)9208-C( 32 17 15)
9209-C( 33 17 15)9210-C( 18 18 15)9211-C( 19 18 15)9212-C( 20 18 15)
9213-C( 21 18 15)9214-C( 22 18 15)9215-C( 23 18 15)9216-C( 24 18 15)
9217-C( 25 18 15)9218-C( 26 18 15)9219-C( 27 18 15)9220-C( 28 18 15)
9221-C( 29 18 15)9222-C( 30 18 15)9223-C( 31 18 15)9224-C( 32 18 15)
9225-C( 33 18 15)9226-C( 19 19 15)9227-C( 20 19 15)9228-C( 21 19 15)
9229-C( 22 19 15)9230-C( 23 19 15)9231-C( 24 19 15)9232-C( 25 19 15)
9233-C( 26 19 15)9234-C( 27 19 15)9235-C( 28 19 15)9236-C( 29 19 15)
9237-C( 30 19 15)9238-C( 31 19 15)9239-C( 32 19 15)9240-C( 33 19 15)
9241-C( 20 20 15)9242-C( 21 20 15)9243-C( 22 20 15)9244-C( 23 20 15)
9245-C( 24 20 15)9246-C( 25 20 15)9247-C( 26 20 15)9248-C( 27 20 15)
9249-C( 28 20 15)9250-C( 29 20 15)9251-C( 30 20 15)9252-C( 31 20 15)
9253-C( 32 20 15)9254-C( 33 20 15)9255-C( 21 21 15)9256-C( 22 21 15)
9257-C( 23 21 15)9258-C( 24 21 15)9259-C( 25 21 15)9260-C( 26 21 15)
9261-C( 27 21 15)9262-C( 28 21 15)9263-C( 29 21 15)9264-C( 30 21 15)
9265-C( 31 21 15)9266-C( 32 21 15)9267-C( 33 21 15)9268-C( 22 22 15)
9269-C( 23 22 15)9270-C( 24 22 15)9271-C( 25 22 15)9272-C( 26 22 15)
9273-C( 27 22 15)9274-C( 28 22 15)9275-C( 29 22 15)9276-C( 30 22 15)
9277-C( 31 22 15)9278-C( 32 22 15)9279-C( 33 22 15)9280-C( 23 23 15)
9281-C( 24 23 15)9282-C( 25 23 15)9283-C( 26 23 15)9284-C( 27 23 15)
9285-C( 28 23 15)9286-C( 29 23 15)9287-C( 30 23 15)9288-C( 31 23 15)
9289-C( 32 23 15)9290-C( 33 23 15)9291-C( 24 24 15)9292-C( 25 24 15)
9293-C( 26 24 15)9294-C( 27 24 15)9295-C( 28 24 15)9296-C( 29 24 15)
9297-C( 30 24 15)9298-C( 31 24 15)9299-C( 32 24 15)9300-C( 33 24 15)
9301-C( 25 25 15)9302-C( 26 25 15)9303-C( 27 25 15)9304-C( 28 25 15)
9305-C( 29 25 15)9306-C( 30 25 15)9307-C( 31 25 15)9308-C( 32 25 15)
9309-C( 26 26 15)9310-C( 27 26 15)9311-C( 28 26 15)9312-C( 29 26 15)
9313-C( 30 26 15)9314-C( 31 26 15)9315-C( 32 26 15)9316-C( 27 27 15)
9317-C( 28 27 15)9318-C( 29 27 15)9319-C( 30 27 15)9320-C( 31 27 15)
9321-C( 32 27 15)9322-C( 28 28 15)9323-C( 29 28 15)9324-C( 30 28 15)
9325-C( 31 28 15)9326-C( 32 28 15)9327-C( 29 29 15)9328-C( 30 29 15)
9329-C( 31 29 15)9330-C( 32 29 15)9331-C( 30 30 15)9332-C( 31 30 15)
9333-C( 32 30 15)9334-C( 31 31 15)9335-C( 32 31 15)9336-C( 32 32 15)
9337-C( 16 16 16)9338-C( 17 16 16)9339-C( 18 16 16)9340-C( 19 16 16)
9341-C( 20 16 16)9342-C( 21 16 16)9343-C( 22 16 16)9344-C( 23 16 16)
9345-C( 24 16 16)9346-C( 25 16 16)9347-C( 26 16 16)9348-C( 27 16 16)
9349-C( 28 16 16)9350-C( 29 16 16)9351-C( 30 16 16)9352-C( 31 16 16)
9353-C( 32 16 16)9354-C( 17 17 16)9355-C( 18 17 16)9356-C( 19 17 16)
9357-C( 20 17 16)9358-C( 21 17 16)9359-C( 22 17 16)9360-C( 23 17 16)
9361-C( 24 17 16)9362-C( 25 17 16)9363-C( 26 17 16)9364-C( 27 17 16)
9365-C( 28 17 16)9366-C( 29 17 16)9367-C( 30 17 16)9368-C( 31 17 16)
9369-C( 32 17 16)9370-C( 18 18 16)9371-C( 19 18 16)9372-C( 20 18 16)
9373-C( 21 18 16)9374-C( 22 18 16)9375-C( 23 18 16)9376-C( 24 18 16)
9377-C( 25 18 16)9378-C( 26 18 16)9379-C( 27 18 16)9380-C( 28 18 16)
9381-C( 29 18 16)9382-C( 30 18 16)9383-C( 31 18 16)9384-C( 32 18 16)
9385-C( 19 19 16)9386-C( 20 19 16)9387-C( 21 19 16)9388-C( 22 19 16)
9389-C( 23 19 16)9390-C( 24 19 16)9391-C( 25 19 16)9392-C( 26 19 16)
9393-C( 27 19 16)9394-C( 28 19 16)9395-C( 29 19 16)9396-C( 30 19 16)
9397-C( 31 19 16)9398-C( 32 19 16)9399-C( 20 20 16)9400-C( 21 20 16)
9401-C( 22 20 16)9402-C( 23 20 16)9403-C( 24 20 16)9404-C( 25 20 16)
9405-C( 26 20 16)9406-C( 27 20 16)9407-C( 28 20 16)9408-C( 29 20 16)
9409-C( 30 20 16)9410-C( 31 20 16)9411-C( 32 20 16)9412-C( 21 21 16)
9413-C( 22 21 16)9414-C( 23 21 16)9415-C( 24 21 16)9416-C( 25 21 16)
9417-C( 26 21 16)9418-C( 27 21 16)9419-C( 28 21 16)9420-C( 29 21 16)
9421-C( 30 21 16)9422-C( 31 21 16)9423-C( 32 21 16)9424-C( 22 22 16)
9425-C( 23 22 16)9426-C( 24 22 16)9427-C( 25 22 16)9428-C( 26 22 16)
9429-C( 27 22 16)9430-C( 28 22 16)9431-C( 29 22 16)9432-C( 30 22 16)
9433-C( 31 22 16)9434-C( 32 22 16)9435-C( 23 23 16)9436-C( 24 23 16)
9437-C( 25 23 16)9438-C( 26 23 16)9439-C( 27 23 16)9440-C( 28 23 16)
9441-C( 29 23 16)9442-C( 30 23 16)9443-C( 31 23 16)9444-C( 32 23 16)
9445-C( 24 24 16)9446-C( 25 24 16)9447-C( 26 24 16)9448-C( 27 24 16)
9449-C( 28 24 16)9450-C( 29 24 16)9451-C( 30 24 16)9452-C( 31 24 16)
9453-C( 32 24 16)9454-C( 25 25 16)9455-C( 26 25 16)9456-C( 27 25 16)
9457-C( 28 25 16)9458-C( 29 25 16)9459-C( 30 25 16)9460-C( 31 25 16)
9461-C( 26 26 16)9462-C( 27 26 16)9463-C( 28 26 16)9464-C( 29 26 16)
9465-C( 30 26 16)9466-C( 31 26 16)9467-C( 27 27 16)9468-C( 28 27 16)
9469-C( 29 27 16)9470-C( 30 27 16)9471-C( 31 27 16)9472-C( 28 28 16)
9473-C( 29 28 16)9474-C( 30 28 16)9475-C( 31 28 16)9476-C( 29 29 16)
9477-C( 30 29 16)9478-C( 31 29 16)9479-C( 30 30 16)9480-C( 31 30 16)
9481-C( 31 31 16)9482-C( 17 17 17)9483-C( 18 17 17)9484-C( 19 17 17)
9485-C( 20 17 17)9486-C( 21 17 17)9487-C( 22 17 17)9488-C( 23 17 17)
9489-C( 24 17 17)9490-C( 25 17 17)9491-C( 26 17 17)9492-C( 27 17 17)
9493-C( 28 17 17)9494-C( 29 17 17)9495-C( 30 17 17)9496-C( 31 17 17)
9497-C( 18 18 17)9498-C( 19 18 17)9499-C( 20 18 17)9500-C( 21 18 17)
9501-C( 22 18 17)9502-C( 23 18 17)9503-C( 24 18 17)9504-C( 25 18 17)
9505-C( 26 18 17)9506-C( 27 18 17)9507-C( 28 18 17)9508-C( 29 18 17)
9509-C( 30 18 17)9510-C( 31 18 17)9511-C( 19 19 17)9512-C( 20 19 17)
9513-C( 21 19 17)9514-C( 22 19 17)9515-C( 23 19 17)9516-C( 24 19 17)
9517-C( 25 19 17)9518-C( 26 19 17)9519-C( 27 19 17)9520-C( 28 19 17)
9521-C( 29 19 17)9522-C( 30 19 17)9523-C( 31 19 17)9524-C( 20 20 17)
9525-C( 21 20 17)9526-C( 22 20 17)9527-C( 23 20 17)9528-C( 24 20 17)
9529-C( 25 20 17)9530-C( 26 20 17)9531-C( 27 20 17)9532-C( 28 20 17)
9533-C( 29 20 17)9534-C( 30 20 17)9535-C( 31 20 17)9536-C( 21 21 17)
9537-C( 22 21 17)9538-C( 23 21 17)9539-C( 24 21 17)9540-C( 25 21 17)
9541-C( 26 21 17)9542-C( 27 21 17)9543-C( 28 21 17)9544-C( 29 21 17)
9545-C( 30 21 17)9546-C( 31 21 17)9547-C( 22 22 17)9548-C( 23 22 17)
9549-C( 24 22 17)9550-C( 25 22 17)9551-C( 26 22 17)9552-C( 27 22 17)
9553-C( 28 22 17)9554-C( 29 22 17)9555-C( 30 22 17)9556-C( 31 22 17)
9557-C( 23 23 17)9558-C( 24 23 17)9559-C( 25 23 17)9560-C( 26 23 17)
9561-C( 27 23 17)9562-C( 28 23 17)9563-C( 29 23 17)9564-C( 30 23 17)
9565-C( 31 23 17)9566-C( 24 24 17)9567-C( 25 24 17)9568-C( 26 24 17)
9569-C( 27 24 17)9570-C( 28 24 17)9571-C( 29 24 17)9572-C( 30 24 17)
9573-C( 31 24 17)9574-C( 25 25 17)9575-C( 26 25 17)9576-C( 27 25 17)
9577-C( 28 25 17)9578-C( 29 25 17)9579-C( 30 25 17)9580-C( 26 26 17)
9581-C( 27 26 17)9582-C( 28 26 17)9583-C( 29 26 17)9584-C( 30 26 17)
9585-C( 27 27 17)9586-C( 28 27 17)9587-C( 29 27 17)9588-C( 30 27 17)
9589-C( 28 28 17)9590-C( 29 28 17)9591-C( 30 28 17)9592-C( 29 29 17)
9593-C( 30 29 17)9594-C( 30 30 17)9595-C( 18 18 18)9596-C( 19 18 18)
9597-C( 20 18 18)9598-C( 21 18 18)9599-C( 22 18 18)9600-C( 23 18 18)
9601-C( 24 18 18)9602-C( 25 18 18)9603-C( 26 18 18)9604-C( 27 18 18)
9605-C( 28 18 18)9606-C( 29 18 18)9607-C( 30 18 18)9608-C( 19 19 18)
9609-C( 20 19 18)9610-C( 21 19 18)9611-C( 22 19 18)9612-C( 23 19 18)
9613-C( 24 19 18)9614-C( 25 19 18)9615-C( 26 19 18)9616-C( 27 19 18)
9617-C( 28 19 18)9618-C( 29 19 18)9619-C( 30 19 18)9620-C( 20 20 18)
9621-C( 21 20 18)9622-C( 22 20 18)9623-C( 23 20 18)9624-C( 24 20 18)
9625-C( 25 20 18)9626-C( 26 20 18)9627-C( 27 20 18)9628-C( 28 20 18)
9629-C( 29 20 18)9630-C( 30 20 18)9631-C( 21 21 18)9632-C( 22 21 18)
9633-C( 23 21 18)9634-C( 24 21 18)9635-C( 25 21 18)9636-C( 26 21 18)
9637-C( 27 21 18)9638-C( 28 21 18)9639-C( 29 21 18)9640-C( 30 21 18)
9641-C( 22 22 18)9642-C( 23 22 18)9643-C( 24 22 18)9644-C( 25 22 18)
9645-C( 26 22 18)9646-C( 27 22 18)9647-C( 28 22 18)9648-C( 29 22 18)
9649-C( 30 22 18)9650-C( 23 23 18)9651-C( 24 23 18)9652-C( 25 23 18)
9653-C( 26 23 18)9654-C( 27 23 18)9655-C( 28 23 18)9656-C( 29 23 18)
9657-C( 30 23 18)9658-C( 24 24 18)9659-C( 25 24 18)9660-C( 26 24 18)
9661-C( 27 24 18)9662-C( 28 24 18)9663-C( 29 24 18)9664-C( 30 24 18)
9665-C( 25 25 18)9666-C( 26 25 18)9667-C( 27 25 18)9668-C( 28 25 18)
9669-C( 29 25 18)9670-C( 26 26 18)9671-C( 27 26 18)9672-C( 28 26 18)
9673-C( 29 26 18)9674-C( 27 27 18)9675-C( 28 27 18)9676-C( 29 27 18)
9677-C( 28 28 18)9678-C( 29 28 18)9679-C( 29 29 18)9680-C( 19 19 19)
9681-C( 20 19 19)9682-C( 21 19 19)9683-C( 22 19 19)9684-C( 23 19 19)
9685-C( 24 19 19)9686-C( 25 19 19)9687-C( 26 19 19)9688-C( 27 19 19)
9689-C( 28 19 19)9690-C( 29 19 19)9691-C( 20 20 19)9692-C( 21 20 19)
9693-C( 22 20 19)9694-C( 23 20 19)9695-C( 24 20 19)9696-C( 25 20 19)
9697-C( 26 20 19)9698-C( 27 20 19)9699-C( 28 20 19)9700-C( 29 20 19)
9701-C( 21 21 19)9702-C( 22 21 19)9703-C( 23 21 19)9704-C( 24 21 19)
9705-C( 25 21 19)9706-C( 26 21 19)9707-C( 27 21 19)9708-C( 28 21 19)
9709-C( 29 21 19)9710-C( 22 22 19)9711-C( 23 22 19)9712-C( 24 22 19)
9713-C( 25 22 19)9714-C( 26 22 19)9715-C( 27 22 19)9716-C( 28 22 19)
9717-C( 29 22 19)9718-C( 23 23 19)9719-C( 24 23 19)9720-C( 25 23 19)
9721-C( 26 23 19)9722-C( 27 23 19)9723-C( 28 23 19)9724-C( 29 23 19)
9725-C( 24 24 19)9726-C( 25 24 19)9727-C( 26 24 19)9728-C( 27 24 19)
9729-C( 28 24 19)9730-C( 29 24 19)9731-C( 25 25 19)9732-C( 26 25 19)
9733-C( 27 25 19)9734-C( 28 25 19)9735-C( 26 26 19)9736-C( 27 26 19)
9737-C( 28 26 19)9738-C( 27 27 19)9739-C( 28 27 19)9740-C( 28 28 19)
9741-C( 20 20 20)9742-C( 21 20 20)9743-C( 22 20 20)9744-C( 23 20 20)
9745-C( 24 20 20)9746-C( 25 20 20)9747-C( 26 20 20)9748-C( 27 20 20)
9749-C( 28 20 20)9750-C( 21 21 20)9751-C( 22 21 20)9752-C( 23 21 20)
9753-C( 24 21 20)9754-C( 25 21 20)9755-C( 26 21 20)9756-C( 27 21 20)
9757-C( 28 21 20)9758-C( 22 22 20)9759-C( 23 22 20)9760-C( 24 22 20)
9761-C( 25 22 20)9762-C( 26 22 20)9763-C( 27 22 20)9764-C( 28 22 20)
9765-C( 23 23 20)9766-C( 24 23 20)9767-C( 25 23 20)9768-C( 26 23 20)
9769-C( 27 23 20)9770-C( 28 23 20)9771-C( 24 24 20)9772-C( 25 24 20)
9773-C( 26 24 20)9774-C( 27 24 20)9775-C( 28 24 20)9776-C( 25 25 20)
9777-C( 26 25 20)9778-C( 27 25 20)9779-C( 26 26 20)9780-C( 27 26 20)
9781-C( 27 27 20)9782-C( 21 21 21)9783-C( 22 21 21)9784-C( 23 21 21)
9785-C( 24 21 21)9786-C( 25 21 21)9787-C( 26 21 21)9788-C( 27 21 21)
9789-C( 22 22 21)9790-C( 23 22 21)9791-C( 24 22 21)9792-C( 25 22 21)
9793-C( 26 22 21)9794-C( 27 22 21)9795-C( 23 23 21)9796-C( 24 23 21)
9797-C( 25 23 21)9798-C( 26 23 21)9799-C( 27 23 21)9800-C( 24 24 21)
9801-C( 25 24 21)9802-C( 26 24 21)9803-C( 27 24 21)9804-C( 25 25 21)
9805-C( 26 25 21)9806-C( 26 26 21)9807-C( 22 22 22)9808-C( 23 22 22)
9809-C( 24 22 22)9810-C( 25 22 22)9811-C( 26 22 22)9812-C( 23 23 22)
9813-C( 24 23 22)9814-C( 25 23 22)9815-C( 26 23 22)9816-C( 24 24 22)
9817-C( 25 24 22)9818-C( 26 24 22)9819-C( 25 25 22)9820-C( 23 23 23)
9821-C( 24 23 23)9822-C( 25 23 23)9823-C( 24 24 23)9824-C( 25 24 23)
9825-R( 24 24 24)

 FERMI ENERGY AND DENSITY MATRIX CALCULATION ON COMPUTED EIGENVECTORS
 DENSITY MATRIX AT SCF CYCLE (  8+1)

 INSULATING STATE
 TOP OF VALENCE BANDS -    BAND     14; K    1; EIG -1.5903086E-01 AU
 BOTTOM OF VIRTUAL BANDS - BAND     15; K    1; EIG -1.4802155E-01 AU
 DIRECT ENERGY BAND GAP:   0.2996 eV
 TTTTTTTTTTTTTTTTTTTTTTTTTTTTTT NEWK        TELAPSE      102.77 TCPU      102.52
 *******************************************************************************

           THERMOELECTRIC AND ELECTRONIC TRANSPORT PROPERTIES CALCULATION

 (Physical Constants: CODATA 2014 NIST, arXiv:1507.07956 http://physics.nist.gov/cuu/Constants/index.html)

 *******************************************************************************
  RELAXATION TIME (fs):                 22.0000
  MIN TEMPERATURE VALUE (K):           300.0000
  MAX TEMPERATURE VALUE (K):           700.0000
  STEP TEMPERATURE VALUE (K):          200.0000
  MIN CHEMICAL POTENTIAL VALUE (eV):    -5.5000
  MAX CHEMICAL POTENTIAL VALUE (eV):    -3.0000
  STEP CHEMICAL POTENTIAL VALUE (eV):    0.0100
  MIN TDF VALUE (eV):                   -5.5000
  MAX TDF VALUE (eV):                   -3.0000
  STEP TDF VALUE (eV):                   0.0010
  SMEARING FACTOR:                       0.0000
  SMEARING SCHEME: FERMI-DIRAC
 *******************************************************************************
 TDF CALCULATION IN PROGRESS...
 TTTTTTTTTTTTTTTTTTTTTTTTTTTTTT SMAT        TELAPSE      277.30 TCPU      276.45
 TDF CALCULATION PERFORMED
 TDF CALCULATED ALONG THE XX,XY,YY,XZ,YZ,ZZ DIRECTIONS
 TTTTTTTTTTTTTTTTTTTTTTTTTTTTTT TDF_CALC    TELAPSE      330.00 TCPU      329.05
 ELECTRICAL CONDUCTIVITY DATA WRITTEN ON SIGMA.DAT
 ELECTRICAL CONDUCTIVITY * SEEBECK COEFFICIENT DATA WRITTEN ON SIGMAS.DAT
 SEEBECK COEFFICIENT DATA WRITTEN ON SEEBECK.DAT
 ELECTRICAL THERMAL CONDUCTIVITY DATA WRITTEN ON KAPPA.DAT
 TRANSPORT DISTRIBUTION FUNCTION DATA WRITTEN ON TDF.DAT
 TTTTTTTTTTTTTTTTTTTTTTTTTTTTTT BOLTZTRA    TELAPSE      330.32 TCPU      329.38
 ENDPROP   
 TTTTTTTTTTTTTTTTTTTTTTTTTTTTTT END         TELAPSE      330.32 TCPU      329.38
 EEEEEEEEEE TERMINATION  DATE 16 03 2018 TIME 12:15:40.0
NODE    0 CPU TIME =       329.377
    TOTAL CPU TIME =     23660.223
