/home/casassa/SVN_DEV1197/bin/Linux-ifort_openmpi_i64_clutDEV/std/Pproperties
/scratch/tmp_p14785
script started on node45
NEWK
60 60
1 0
BOLTZTRA
TDFRANGE
-4.2 0.2 0.01
MURANGE
-4.2 0.2 0.01
TRANGE
100. 1200. 100         
RELAXTIM
18
END
END
************************************************
ANOTHER DROLLERY FILLED RUN OF THE PCRYSTAL CODE!
************************************************
Thu Jan 13 11:16:30 CET 2022
 PROCESS            1  OF           16  WORKING
 PROCESS            5  OF           16  WORKING
 PROCESS            4  OF           16  WORKING
 PROCESS            6  OF           16  WORKING
 PROCESS            0  OF           16  WORKING
 PROCESS            2  OF           16  WORKING
 PROCESS            3  OF           16  WORKING
 PROCESS            7  OF           16  WORKING
 PROCESS           13  OF           16  WORKING
 PROCESS           14  OF           16  WORKING
 PROCESS            8  OF           16  WORKING
 PROCESS            9  OF           16  WORKING
 PROCESS           10  OF           16  WORKING
 PROCESS           12  OF           16  WORKING
 PROCESS           15  OF           16  WORKING
 PROCESS           11  OF           16  WORKING

         
 *******************************************************************************
 *                                                                             *
 *                               CRYSTAL19                                     *
 *                      public : 1.0.1 - Feb 1st, 2017                         *
 *                       HTTP://WWW.CRYSTAL.UNITO.IT                           *
 *                                                                             *
 *                              MAIN AUTHORS                                   *
 *                                                                             *
 *  R. DOVESI(1,11), V.R. SAUNDERS(2), C. ROETTI(1,11), R. ORLANDO(1,11),      *
 *  C.M. ZICOVICH-WILSON(1,3), F. PASCALE(4), B. CIVALLERI(1,11),              *
 *  K. DOLL(5), N.M. HARRISON(2,6), I.J. BUSH(7), Ph. D'ARCO(8),               *
 *  M. LLUNELL(9), M. CAUSA'(10), Y. NOEL(8), L. MASCHIO(1,11), A. ERBA(1,11)  *
 *  M. RE'RAT(14), S. CASASSA(1,11)                                            *
 *                                                                             *
 *        CONTRIBUTIONS TO THE CODE HAVE ALSO BEEN GIVEN BY                    *
 *                                                                             *
 *  M. FERRABONE(1,11), M. DE LA PIERRE(1,11), M. FERRERO(1,11),               *
 *  J. BAIMA(1,11), E. ALBANESE(1,11), M.F. PEINTINGER(12), R. BAST(13),       *
 *  B. KIRTMAN(15), V. LACIVITA(1,11), R. DEMICHELIS(1,16)                     *
 *  G. BRANDEBURG(17), S. SALUSTRO(1,11), G. SANSONE(1,11)                     *
 *  M.T. RUGGIERO(18)                                                          *
 *                                                                             *
 * (1) THEORETICAL CHEMISTRY GROUP - UNIVERSITA' DI TORINO - TORINO (ITALY)    *

 * (2) COMPUTATIONAL SCIENCE & ENGINEERING DEPARTMENT - STFC DARESBURY (UK)    *
 * (3) UNIVERSIDAD AUTONOMA DEL ESTADO DE MORELOS - CUERNAVACA (MEXICO)        *
 * (4) UNIVERSITE' DE LORRAINE - NANCY (FRANCE)                                *
 * (5) UNIVERSITAET STUTTGART- STUTTGART (GERMANY)                             *
 * (6) IMPERIAL COLLEGE - LONDON (UK)                                          *
 * (7) OXFORD E-RESEARCH CENTRE - OXFORD (UK)                                  *
 * (8) UPMC - SORBONNE UNIVERSITES - PARIS (FRANCE)                            *
 * (9) UNIVERSIDAD DE BARCELONA - BARCELONA (SPAIN)                            *
 *(10) UNIVERSITA' DI NAPOLI "FEDERICO II" - NAPOLI (ITALY)                    *
 *(11) NIS - NANOSTRUCTURED INTERFACES AND SURFACES - TORINO (ITALY)           *
 *(12) MPI FUER CHEMISCHE ENERGIEKONVERSION - MUELHEIM AN DER RUHR (GERMANY)   *
 *(13) UNIVERSITY OF TROMSO - TROMSO (NORWAY)                                  *
 *(14) UNIVERSITE' DE PAU ET DES PAYS DE L'ADOUR - PAU (FRANCE)                *
 *(15) UNIVERSITY OF CALIFORNIA SANTA BARBARA - SANTA BARBARA (USA)            *
 *(16) CURTIN UNIVERSITY - PERTH (AUSTRALIA)                                   *
 *(17) UNIVERSITY COLLEGE LONDON - LONDON (UK)                                 *
 *(18) CAMBRIDGE UNIVERSITY - CAMBRIDGE (UK)                                   *
 *                                                                             *
 *******************************************************************************
 EEEEEEEEEE STARTING  DATE 13 01 2022 TIME 11:16:31.2
 INFORMATION **** SET_MPP **** PCRYSTAL CALCULATION

 *******************************************************************************
 ZRNISN                                                                          
 CRYSTAL - PROPERTIES - TYPE OF CALCULATION :  RESTRICTED CLOSED SHELL
 *******************************************************************************
 KOHN-SHAM HAMILTONIAN

 (EXCHANGE)[CORRELATION] FUNCTIONAL:(PERDEW-BURKE-ERNZERHOF)[PERDEW-BURKE-ERNZERHOF]


 DIRECT LATTICE VECTOR COMPONENTS (ANGSTROM)
         0.00000    2.97847    2.97847
         2.97847    0.00000    2.97847
         2.97847    2.97847    0.00000

 LATTICE PARAMETERS  (ANGSTROM AND DEGREES) - PRIMITIVE CELL
       A          B          C         ALPHA      BETA     GAMMA        VOLUME
    4.21220    4.21220    4.21220     60.0000   60.0000   60.0000      52.84594
 *******************************************************************************
 N. OF ATOMS PER CELL         3 COULOMB OVERLAP TOL          (T1) 10**   -8
 NUMBER OF SHELLS            26 COULOMB PENETRATION TOL      (T2) 10**   -8
 NUMBER OF AO                82 EXCHANGE OVERLAP TOL         (T3) 10**   20
 N. OF ELECTRONS PER CELL    90 EXCHANGE PSEUDO OVP (F(G))   (T4) 10**   20
 CORE ELECTRONS PER CELL     54 EXCHANGE PSEUDO OVP (P(G))   (T5) 10**   20
 N. OF SYMMETRY OPERATORS    24 POLE ORDER IN MONO ZONE                   4
 CORE  PSEUDO POTENTIAL         TOL. ON PSEUDO              (TP) 10**- 6
 *******************************************************************************
   ATOM N.AT.  SHELL    X(A)      Y(A)      Z(A)      EXAD       N.ELECT.
 *******************************************************************************
    1   40 ZR    8     0.000     0.000     0.000   5.900E-01      37.257
    2   28 NI    9     1.489    -1.489    -1.489   4.374E-01      28.981
    3  250 SN    9     2.978     2.978     2.978   2.050E-01      23.763
 *******************************************************************************
 DE(K)                   0.000E+00  ENERGY LEVEL SHIFTING        0.00000
 TOTAL ENERGY -5.2629653245159E+03  CONVERGENCE ON ENER       -5.636E-09
 KIN. ENERGY   5.1253441128431E+03  VIR. COEFF.           1.00548402E+00
 N. OF SCF CYCLES                5  FERMI ENERGY              -0.850E-01
 WEIGHT OF F(I) IN F(I+1)      30
 SHRINK. FACT.(MONKH.)    16 16 16  SHRINKING FACTOR(GILAT NET)       16
 NUMBER OF K POINTS IN THE IBZ 145  CELL VOLUME (A.U.)        384.822314
 *******************************************************************************

 GCALCO - MAX INDICES DIRECT LATTICE VECTOR    14    14    14
 NO.OF VECTORS CREATED 6999 STARS  105 RMAX    84.23969 BOHR
 TTTTTTTTTTTTTTTTTTTTTTTTTTTTTT gordsh1     TELAPSE        0.63 TCPU        0.59

 MATRIX SIZE: P(G)   70182, F(G)   35571, P(G) IRR    5823, F(G) IRR    5823
 MAX G-VECTOR INDEX FOR 1- AND 2-ELECTRON INTEGRALS 271


 CAPPA:IS1 16;IS2 16;IS3 16; K PTS MONK NET 145; SYMMOPS:K SPACE  48;G SPACE  24


 CAPPA:IS1 60;IS2 60;IS3 60; K PTS MONK NET5216; SYMMOPS:K SPACE  48;G SPACE  24

 *******************************************************************************
 RESTART WITH NEW K POINTS NET
 *******************************************************************************
 POINTS IN THE IBZ                5216 POINTS(GILAT NET)              5216
 SHRINK FACTORS(MONK.)        60 60 60 SHRINK FACTOR(GILAT)             60
 *******************************************************************************
 *** K POINTS COORDINATES (OBLIQUE COORDINATES IN UNITS OF IS = 60)
   1-R(  0  0  0)   2-C(  1  0  0)   3-C(  2  0  0)   4-C(  3  0  0)
   5-C(  4  0  0)   6-C(  5  0  0)   7-C(  6  0  0)   8-C(  7  0  0)
   9-C(  8  0  0)  10-C(  9  0  0)  11-C( 10  0  0)  12-C( 11  0  0)
  13-C( 12  0  0)  14-C( 13  0  0)  15-C( 14  0  0)  16-C( 15  0  0)
  17-C( 16  0  0)  18-C( 17  0  0)  19-C( 18  0  0)  20-C( 19  0  0)
  21-C( 20  0  0)  22-C( 21  0  0)  23-C( 22  0  0)  24-C( 23  0  0)
  25-C( 24  0  0)  26-C( 25  0  0)  27-C( 26  0  0)  28-C( 27  0  0)
  29-C( 28  0  0)  30-C( 29  0  0)  31-R( 30  0  0)  32-C(  1  1  0)
  33-C(  2  1  0)  34-C(  3  1  0)  35-C(  4  1  0)  36-C(  5  1  0)
  37-C(  6  1  0)  38-C(  7  1  0)  39-C(  8  1  0)  40-C(  9  1  0)
  41-C( 10  1  0)  42-C( 11  1  0)  43-C( 12  1  0)  44-C( 13  1  0)
  45-C( 14  1  0)  46-C( 15  1  0)  47-C( 16  1  0)  48-C( 17  1  0)
  49-C( 18  1  0)  50-C( 19  1  0)  51-C( 20  1  0)  52-C( 21  1  0)
  53-C( 22  1  0)  54-C( 23  1  0)  55-C( 24  1  0)  56-C( 25  1  0)
  57-C( 26  1  0)  58-C( 27  1  0)  59-C( 28  1  0)  60-C( 29  1  0)
  61-C( 30  1  0)  62-C( 31  1  0)  63-C( 32  1  0)  64-C( 33  1  0)
  65-C( 34  1  0)  66-C( 35  1  0)  67-C( 36  1  0)  68-C( 37  1  0)
  69-C( 38  1  0)  70-C( 39  1  0)  71-C( 40  1  0)  72-C( 41  1  0)
  73-C( 42  1  0)  74-C( 43  1  0)  75-C( 44  1  0)  76-C( 45  1  0)
  77-C( 46  1  0)  78-C( 47  1  0)  79-C( 48  1  0)  80-C( 49  1  0)
  81-C( 50  1  0)  82-C( 51  1  0)  83-C( 52  1  0)  84-C( 53  1  0)
  85-C( 54  1  0)  86-C( 55  1  0)  87-C( 56  1  0)  88-C( 57  1  0)
  89-C( 58  1  0)  90-C( 59  1  0)  91-C(  2  2  0)  92-C(  3  2  0)
  93-C(  4  2  0)  94-C(  5  2  0)  95-C(  6  2  0)  96-C(  7  2  0)
  97-C(  8  2  0)  98-C(  9  2  0)  99-C( 10  2  0) 100-C( 11  2  0)
 101-C( 12  2  0) 102-C( 13  2  0) 103-C( 14  2  0) 104-C( 15  2  0)
 105-C( 16  2  0) 106-C( 17  2  0) 107-C( 18  2  0) 108-C( 19  2  0)
 109-C( 20  2  0) 110-C( 21  2  0) 111-C( 22  2  0) 112-C( 23  2  0)
 113-C( 24  2  0) 114-C( 25  2  0) 115-C( 26  2  0) 116-C( 27  2  0)
 117-C( 28  2  0) 118-C( 29  2  0) 119-C( 30  2  0) 120-C( 31  2  0)
 121-C( 32  2  0) 122-C( 33  2  0) 123-C( 34  2  0) 124-C( 35  2  0)
 125-C( 36  2  0) 126-C( 37  2  0) 127-C( 38  2  0) 128-C( 39  2  0)
 129-C( 40  2  0) 130-C( 41  2  0) 131-C( 42  2  0) 132-C( 43  2  0)
 133-C( 44  2  0) 134-C( 45  2  0) 135-C( 46  2  0) 136-C( 47  2  0)
 137-C( 48  2  0) 138-C( 49  2  0) 139-C( 50  2  0) 140-C( 51  2  0)
 141-C( 52  2  0) 142-C( 53  2  0) 143-C( 54  2  0) 144-C( 55  2  0)
 145-C( 56  2  0) 146-C( 57  2  0) 147-C( 58  2  0) 148-C(  3  3  0)
 149-C(  4  3  0) 150-C(  5  3  0) 151-C(  6  3  0) 152-C(  7  3  0)
 153-C(  8  3  0) 154-C(  9  3  0) 155-C( 10  3  0) 156-C( 11  3  0)
 157-C( 12  3  0) 158-C( 13  3  0) 159-C( 14  3  0) 160-C( 15  3  0)
 161-C( 16  3  0) 162-C( 17  3  0) 163-C( 18  3  0) 164-C( 19  3  0)
 165-C( 20  3  0) 166-C( 21  3  0) 167-C( 22  3  0) 168-C( 23  3  0)
 169-C( 24  3  0) 170-C( 25  3  0) 171-C( 26  3  0) 172-C( 27  3  0)
 173-C( 28  3  0) 174-C( 29  3  0) 175-C( 30  3  0) 176-C( 31  3  0)
 177-C( 32  3  0) 178-C( 33  3  0) 179-C( 34  3  0) 180-C( 35  3  0)
 181-C( 36  3  0) 182-C( 37  3  0) 183-C( 38  3  0) 184-C( 39  3  0)
 185-C( 40  3  0) 186-C( 41  3  0) 187-C( 42  3  0) 188-C( 43  3  0)
 189-C( 44  3  0) 190-C( 45  3  0) 191-C( 46  3  0) 192-C( 47  3  0)
 193-C( 48  3  0) 194-C( 49  3  0) 195-C( 50  3  0) 196-C( 51  3  0)
 197-C( 52  3  0) 198-C( 53  3  0) 199-C( 54  3  0) 200-C( 55  3  0)
 201-C( 56  3  0) 202-C( 57  3  0) 203-C(  4  4  0) 204-C(  5  4  0)
 205-C(  6  4  0) 206-C(  7  4  0) 207-C(  8  4  0) 208-C(  9  4  0)
 209-C( 10  4  0) 210-C( 11  4  0) 211-C( 12  4  0) 212-C( 13  4  0)
 213-C( 14  4  0) 214-C( 15  4  0) 215-C( 16  4  0) 216-C( 17  4  0)
 217-C( 18  4  0) 218-C( 19  4  0) 219-C( 20  4  0) 220-C( 21  4  0)
 221-C( 22  4  0) 222-C( 23  4  0) 223-C( 24  4  0) 224-C( 25  4  0)
 225-C( 26  4  0) 226-C( 27  4  0) 227-C( 28  4  0) 228-C( 29  4  0)
 229-C( 30  4  0) 230-C( 31  4  0) 231-C( 32  4  0) 232-C( 33  4  0)
 233-C( 34  4  0) 234-C( 35  4  0) 235-C( 36  4  0) 236-C( 37  4  0)
 237-C( 38  4  0) 238-C( 39  4  0) 239-C( 40  4  0) 240-C( 41  4  0)
 241-C( 42  4  0) 242-C( 43  4  0) 243-C( 44  4  0) 244-C( 45  4  0)
 245-C( 46  4  0) 246-C( 47  4  0) 247-C( 48  4  0) 248-C( 49  4  0)
 249-C( 50  4  0) 250-C( 51  4  0) 251-C( 52  4  0) 252-C( 53  4  0)
 253-C( 54  4  0) 254-C( 55  4  0) 255-C( 56  4  0) 256-C(  5  5  0)
 257-C(  6  5  0) 258-C(  7  5  0) 259-C(  8  5  0) 260-C(  9  5  0)
 261-C( 10  5  0) 262-C( 11  5  0) 263-C( 12  5  0) 264-C( 13  5  0)
 265-C( 14  5  0) 266-C( 15  5  0) 267-C( 16  5  0) 268-C( 17  5  0)
 269-C( 18  5  0) 270-C( 19  5  0) 271-C( 20  5  0) 272-C( 21  5  0)
 273-C( 22  5  0) 274-C( 23  5  0) 275-C( 24  5  0) 276-C( 25  5  0)
 277-C( 26  5  0) 278-C( 27  5  0) 279-C( 28  5  0) 280-C( 29  5  0)
 281-C( 30  5  0) 282-C( 31  5  0) 283-C( 32  5  0) 284-C( 33  5  0)
 285-C( 34  5  0) 286-C( 35  5  0) 287-C( 36  5  0) 288-C( 37  5  0)
 289-C( 38  5  0) 290-C( 39  5  0) 291-C( 40  5  0) 292-C( 41  5  0)
 293-C( 42  5  0) 294-C( 43  5  0) 295-C( 44  5  0) 296-C( 45  5  0)
 297-C( 46  5  0) 298-C( 47  5  0) 299-C( 48  5  0) 300-C( 49  5  0)
 301-C( 50  5  0) 302-C( 51  5  0) 303-C( 52  5  0) 304-C( 53  5  0)
 305-C( 54  5  0) 306-C( 55  5  0) 307-C(  6  6  0) 308-C(  7  6  0)
 309-C(  8  6  0) 310-C(  9  6  0) 311-C( 10  6  0) 312-C( 11  6  0)
 313-C( 12  6  0) 314-C( 13  6  0) 315-C( 14  6  0) 316-C( 15  6  0)
 317-C( 16  6  0) 318-C( 17  6  0) 319-C( 18  6  0) 320-C( 19  6  0)
 321-C( 20  6  0) 322-C( 21  6  0) 323-C( 22  6  0) 324-C( 23  6  0)
 325-C( 24  6  0) 326-C( 25  6  0) 327-C( 26  6  0) 328-C( 27  6  0)
 329-C( 28  6  0) 330-C( 29  6  0) 331-C( 30  6  0) 332-C( 31  6  0)
 333-C( 32  6  0) 334-C( 33  6  0) 335-C( 34  6  0) 336-C( 35  6  0)
 337-C( 36  6  0) 338-C( 37  6  0) 339-C( 38  6  0) 340-C( 39  6  0)
 341-C( 40  6  0) 342-C( 41  6  0) 343-C( 42  6  0) 344-C( 43  6  0)
 345-C( 44  6  0) 346-C( 45  6  0) 347-C( 46  6  0) 348-C( 47  6  0)
 349-C( 48  6  0) 350-C( 49  6  0) 351-C( 50  6  0) 352-C( 51  6  0)
 353-C( 52  6  0) 354-C( 53  6  0) 355-C( 54  6  0) 356-C(  7  7  0)
 357-C(  8  7  0) 358-C(  9  7  0) 359-C( 10  7  0) 360-C( 11  7  0)
 361-C( 12  7  0) 362-C( 13  7  0) 363-C( 14  7  0) 364-C( 15  7  0)
 365-C( 16  7  0) 366-C( 17  7  0) 367-C( 18  7  0) 368-C( 19  7  0)
 369-C( 20  7  0) 370-C( 21  7  0) 371-C( 22  7  0) 372-C( 23  7  0)
 373-C( 24  7  0) 374-C( 25  7  0) 375-C( 26  7  0) 376-C( 27  7  0)
 377-C( 28  7  0) 378-C( 29  7  0) 379-C( 30  7  0) 380-C( 31  7  0)
 381-C( 32  7  0) 382-C( 33  7  0) 383-C( 34  7  0) 384-C( 35  7  0)
 385-C( 36  7  0) 386-C( 37  7  0) 387-C( 38  7  0) 388-C( 39  7  0)
 389-C( 40  7  0) 390-C( 41  7  0) 391-C( 42  7  0) 392-C( 43  7  0)
 393-C( 44  7  0) 394-C( 45  7  0) 395-C( 46  7  0) 396-C( 47  7  0)
 397-C( 48  7  0) 398-C( 49  7  0) 399-C( 50  7  0) 400-C( 51  7  0)
 401-C( 52  7  0) 402-C( 53  7  0) 403-C(  8  8  0) 404-C(  9  8  0)
 405-C( 10  8  0) 406-C( 11  8  0) 407-C( 12  8  0) 408-C( 13  8  0)
 409-C( 14  8  0) 410-C( 15  8  0) 411-C( 16  8  0) 412-C( 17  8  0)
 413-C( 18  8  0) 414-C( 19  8  0) 415-C( 20  8  0) 416-C( 21  8  0)
 417-C( 22  8  0) 418-C( 23  8  0) 419-C( 24  8  0) 420-C( 25  8  0)
 421-C( 26  8  0) 422-C( 27  8  0) 423-C( 28  8  0) 424-C( 29  8  0)
 425-C( 30  8  0) 426-C( 31  8  0) 427-C( 32  8  0) 428-C( 33  8  0)
 429-C( 34  8  0) 430-C( 35  8  0) 431-C( 36  8  0) 432-C( 37  8  0)
 433-C( 38  8  0) 434-C( 39  8  0) 435-C( 40  8  0) 436-C( 41  8  0)
 437-C( 42  8  0) 438-C( 43  8  0) 439-C( 44  8  0) 440-C( 45  8  0)
 441-C( 46  8  0) 442-C( 47  8  0) 443-C( 48  8  0) 444-C( 49  8  0)
 445-C( 50  8  0) 446-C( 51  8  0) 447-C( 52  8  0) 448-C(  9  9  0)
 449-C( 10  9  0) 450-C( 11  9  0) 451-C( 12  9  0) 452-C( 13  9  0)
 453-C( 14  9  0) 454-C( 15  9  0) 455-C( 16  9  0) 456-C( 17  9  0)
 457-C( 18  9  0) 458-C( 19  9  0) 459-C( 20  9  0) 460-C( 21  9  0)
 461-C( 22  9  0) 462-C( 23  9  0) 463-C( 24  9  0) 464-C( 25  9  0)
 465-C( 26  9  0) 466-C( 27  9  0) 467-C( 28  9  0) 468-C( 29  9  0)
 469-C( 30  9  0) 470-C( 31  9  0) 471-C( 32  9  0) 472-C( 33  9  0)
 473-C( 34  9  0) 474-C( 35  9  0) 475-C( 36  9  0) 476-C( 37  9  0)
 477-C( 38  9  0) 478-C( 39  9  0) 479-C( 40  9  0) 480-C( 41  9  0)
 481-C( 42  9  0) 482-C( 43  9  0) 483-C( 44  9  0) 484-C( 45  9  0)
 485-C( 46  9  0) 486-C( 47  9  0) 487-C( 48  9  0) 488-C( 49  9  0)
 489-C( 50  9  0) 490-C( 51  9  0) 491-C( 10 10  0) 492-C( 11 10  0)
 493-C( 12 10  0) 494-C( 13 10  0) 495-C( 14 10  0) 496-C( 15 10  0)
 497-C( 16 10  0) 498-C( 17 10  0) 499-C( 18 10  0) 500-C( 19 10  0)
 501-C( 20 10  0) 502-C( 21 10  0) 503-C( 22 10  0) 504-C( 23 10  0)
 505-C( 24 10  0) 506-C( 25 10  0) 507-C( 26 10  0) 508-C( 27 10  0)
 509-C( 28 10  0) 510-C( 29 10  0) 511-C( 30 10  0) 512-C( 31 10  0)
 513-C( 32 10  0) 514-C( 33 10  0) 515-C( 34 10  0) 516-C( 35 10  0)
 517-C( 36 10  0) 518-C( 37 10  0) 519-C( 38 10  0) 520-C( 39 10  0)
 521-C( 40 10  0) 522-C( 41 10  0) 523-C( 42 10  0) 524-C( 43 10  0)
 525-C( 44 10  0) 526-C( 45 10  0) 527-C( 46 10  0) 528-C( 47 10  0)
 529-C( 48 10  0) 530-C( 49 10  0) 531-C( 50 10  0) 532-C( 11 11  0)
 533-C( 12 11  0) 534-C( 13 11  0) 535-C( 14 11  0) 536-C( 15 11  0)
 537-C( 16 11  0) 538-C( 17 11  0) 539-C( 18 11  0) 540-C( 19 11  0)
 541-C( 20 11  0) 542-C( 21 11  0) 543-C( 22 11  0) 544-C( 23 11  0)
 545-C( 24 11  0) 546-C( 25 11  0) 547-C( 26 11  0) 548-C( 27 11  0)
 549-C( 28 11  0) 550-C( 29 11  0) 551-C( 30 11  0) 552-C( 31 11  0)
 553-C( 32 11  0) 554-C( 33 11  0) 555-C( 34 11  0) 556-C( 35 11  0)
 557-C( 36 11  0) 558-C( 37 11  0) 559-C( 38 11  0) 560-C( 39 11  0)
 561-C( 40 11  0) 562-C( 41 11  0) 563-C( 42 11  0) 564-C( 43 11  0)
 565-C( 44 11  0) 566-C( 45 11  0) 567-C( 46 11  0) 568-C( 47 11  0)
 569-C( 48 11  0) 570-C( 49 11  0) 571-C( 12 12  0) 572-C( 13 12  0)
 573-C( 14 12  0) 574-C( 15 12  0) 575-C( 16 12  0) 576-C( 17 12  0)
 577-C( 18 12  0) 578-C( 19 12  0) 579-C( 20 12  0) 580-C( 21 12  0)
 581-C( 22 12  0) 582-C( 23 12  0) 583-C( 24 12  0) 584-C( 25 12  0)
 585-C( 26 12  0) 586-C( 27 12  0) 587-C( 28 12  0) 588-C( 29 12  0)
 589-C( 30 12  0) 590-C( 31 12  0) 591-C( 32 12  0) 592-C( 33 12  0)
 593-C( 34 12  0) 594-C( 35 12  0) 595-C( 36 12  0) 596-C( 37 12  0)
 597-C( 38 12  0) 598-C( 39 12  0) 599-C( 40 12  0) 600-C( 41 12  0)
 601-C( 42 12  0) 602-C( 43 12  0) 603-C( 44 12  0) 604-C( 45 12  0)
 605-C( 46 12  0) 606-C( 47 12  0) 607-C( 48 12  0) 608-C( 13 13  0)
 609-C( 14 13  0) 610-C( 15 13  0) 611-C( 16 13  0) 612-C( 17 13  0)
 613-C( 18 13  0) 614-C( 19 13  0) 615-C( 20 13  0) 616-C( 21 13  0)
 617-C( 22 13  0) 618-C( 23 13  0) 619-C( 24 13  0) 620-C( 25 13  0)
 621-C( 26 13  0) 622-C( 27 13  0) 623-C( 28 13  0) 624-C( 29 13  0)
 625-C( 30 13  0) 626-C( 31 13  0) 627-C( 32 13  0) 628-C( 33 13  0)
 629-C( 34 13  0) 630-C( 35 13  0) 631-C( 36 13  0) 632-C( 37 13  0)
 633-C( 38 13  0) 634-C( 39 13  0) 635-C( 40 13  0) 636-C( 41 13  0)
 637-C( 42 13  0) 638-C( 43 13  0) 639-C( 44 13  0) 640-C( 45 13  0)
 641-C( 46 13  0) 642-C( 47 13  0) 643-C( 14 14  0) 644-C( 15 14  0)
 645-C( 16 14  0) 646-C( 17 14  0) 647-C( 18 14  0) 648-C( 19 14  0)
 649-C( 20 14  0) 650-C( 21 14  0) 651-C( 22 14  0) 652-C( 23 14  0)
 653-C( 24 14  0) 654-C( 25 14  0) 655-C( 26 14  0) 656-C( 27 14  0)
 657-C( 28 14  0) 658-C( 29 14  0) 659-C( 30 14  0) 660-C( 31 14  0)
 661-C( 32 14  0) 662-C( 33 14  0) 663-C( 34 14  0) 664-C( 35 14  0)
 665-C( 36 14  0) 666-C( 37 14  0) 667-C( 38 14  0) 668-C( 39 14  0)
 669-C( 40 14  0) 670-C( 41 14  0) 671-C( 42 14  0) 672-C( 43 14  0)
 673-C( 44 14  0) 674-C( 45 14  0) 675-C( 46 14  0) 676-C( 15 15  0)
 677-C( 16 15  0) 678-C( 17 15  0) 679-C( 18 15  0) 680-C( 19 15  0)
 681-C( 20 15  0) 682-C( 21 15  0) 683-C( 22 15  0) 684-C( 23 15  0)
 685-C( 24 15  0) 686-C( 25 15  0) 687-C( 26 15  0) 688-C( 27 15  0)
 689-C( 28 15  0) 690-C( 29 15  0) 691-C( 30 15  0) 692-C( 31 15  0)
 693-C( 32 15  0) 694-C( 33 15  0) 695-C( 34 15  0) 696-C( 35 15  0)
 697-C( 36 15  0) 698-C( 37 15  0) 699-C( 38 15  0) 700-C( 39 15  0)
 701-C( 40 15  0) 702-C( 41 15  0) 703-C( 42 15  0) 704-C( 43 15  0)
 705-C( 44 15  0) 706-C( 45 15  0) 707-C( 16 16  0) 708-C( 17 16  0)
 709-C( 18 16  0) 710-C( 19 16  0) 711-C( 20 16  0) 712-C( 21 16  0)
 713-C( 22 16  0) 714-C( 23 16  0) 715-C( 24 16  0) 716-C( 25 16  0)
 717-C( 26 16  0) 718-C( 27 16  0) 719-C( 28 16  0) 720-C( 29 16  0)
 721-C( 30 16  0) 722-C( 31 16  0) 723-C( 32 16  0) 724-C( 33 16  0)
 725-C( 34 16  0) 726-C( 35 16  0) 727-C( 36 16  0) 728-C( 37 16  0)
 729-C( 38 16  0) 730-C( 39 16  0) 731-C( 40 16  0) 732-C( 41 16  0)
 733-C( 42 16  0) 734-C( 43 16  0) 735-C( 44 16  0) 736-C( 17 17  0)
 737-C( 18 17  0) 738-C( 19 17  0) 739-C( 20 17  0) 740-C( 21 17  0)
 741-C( 22 17  0) 742-C( 23 17  0) 743-C( 24 17  0) 744-C( 25 17  0)
 745-C( 26 17  0) 746-C( 27 17  0) 747-C( 28 17  0) 748-C( 29 17  0)
 749-C( 30 17  0) 750-C( 31 17  0) 751-C( 32 17  0) 752-C( 33 17  0)
 753-C( 34 17  0) 754-C( 35 17  0) 755-C( 36 17  0) 756-C( 37 17  0)
 757-C( 38 17  0) 758-C( 39 17  0) 759-C( 40 17  0) 760-C( 41 17  0)
 761-C( 42 17  0) 762-C( 43 17  0) 763-C( 18 18  0) 764-C( 19 18  0)
 765-C( 20 18  0) 766-C( 21 18  0) 767-C( 22 18  0) 768-C( 23 18  0)
 769-C( 24 18  0) 770-C( 25 18  0) 771-C( 26 18  0) 772-C( 27 18  0)
 773-C( 28 18  0) 774-C( 29 18  0) 775-C( 30 18  0) 776-C( 31 18  0)
 777-C( 32 18  0) 778-C( 33 18  0) 779-C( 34 18  0) 780-C( 35 18  0)
 781-C( 36 18  0) 782-C( 37 18  0) 783-C( 38 18  0) 784-C( 39 18  0)
 785-C( 40 18  0) 786-C( 41 18  0) 787-C( 42 18  0) 788-C( 19 19  0)
 789-C( 20 19  0) 790-C( 21 19  0) 791-C( 22 19  0) 792-C( 23 19  0)
 793-C( 24 19  0) 794-C( 25 19  0) 795-C( 26 19  0) 796-C( 27 19  0)
 797-C( 28 19  0) 798-C( 29 19  0) 799-C( 30 19  0) 800-C( 31 19  0)
 801-C( 32 19  0) 802-C( 33 19  0) 803-C( 34 19  0) 804-C( 35 19  0)
 805-C( 36 19  0) 806-C( 37 19  0) 807-C( 38 19  0) 808-C( 39 19  0)
 809-C( 40 19  0) 810-C( 41 19  0) 811-C( 20 20  0) 812-C( 21 20  0)
 813-C( 22 20  0) 814-C( 23 20  0) 815-C( 24 20  0) 816-C( 25 20  0)
 817-C( 26 20  0) 818-C( 27 20  0) 819-C( 28 20  0) 820-C( 29 20  0)
 821-C( 30 20  0) 822-C( 31 20  0) 823-C( 32 20  0) 824-C( 33 20  0)
 825-C( 34 20  0) 826-C( 35 20  0) 827-C( 36 20  0) 828-C( 37 20  0)
 829-C( 38 20  0) 830-C( 39 20  0) 831-C( 40 20  0) 832-C( 21 21  0)
 833-C( 22 21  0) 834-C( 23 21  0) 835-C( 24 21  0) 836-C( 25 21  0)
 837-C( 26 21  0) 838-C( 27 21  0) 839-C( 28 21  0) 840-C( 29 21  0)
 841-C( 30 21  0) 842-C( 31 21  0) 843-C( 32 21  0) 844-C( 33 21  0)
 845-C( 34 21  0) 846-C( 35 21  0) 847-C( 36 21  0) 848-C( 37 21  0)
 849-C( 38 21  0) 850-C( 39 21  0) 851-C( 22 22  0) 852-C( 23 22  0)
 853-C( 24 22  0) 854-C( 25 22  0) 855-C( 26 22  0) 856-C( 27 22  0)
 857-C( 28 22  0) 858-C( 29 22  0) 859-C( 30 22  0) 860-C( 31 22  0)
 861-C( 32 22  0) 862-C( 33 22  0) 863-C( 34 22  0) 864-C( 35 22  0)
 865-C( 36 22  0) 866-C( 37 22  0) 867-C( 38 22  0) 868-C( 23 23  0)
 869-C( 24 23  0) 870-C( 25 23  0) 871-C( 26 23  0) 872-C( 27 23  0)
 873-C( 28 23  0) 874-C( 29 23  0) 875-C( 30 23  0) 876-C( 31 23  0)
 877-C( 32 23  0) 878-C( 33 23  0) 879-C( 34 23  0) 880-C( 35 23  0)
 881-C( 36 23  0) 882-C( 37 23  0) 883-C( 24 24  0) 884-C( 25 24  0)
 885-C( 26 24  0) 886-C( 27 24  0) 887-C( 28 24  0) 888-C( 29 24  0)
 889-C( 30 24  0) 890-C( 31 24  0) 891-C( 32 24  0) 892-C( 33 24  0)
 893-C( 34 24  0) 894-C( 35 24  0) 895-C( 36 24  0) 896-C( 25 25  0)
 897-C( 26 25  0) 898-C( 27 25  0) 899-C( 28 25  0) 900-C( 29 25  0)
 901-C( 30 25  0) 902-C( 31 25  0) 903-C( 32 25  0) 904-C( 33 25  0)
 905-C( 34 25  0) 906-C( 35 25  0) 907-C( 26 26  0) 908-C( 27 26  0)
 909-C( 28 26  0) 910-C( 29 26  0) 911-C( 30 26  0) 912-C( 31 26  0)
 913-C( 32 26  0) 914-C( 33 26  0) 915-C( 34 26  0) 916-C( 27 27  0)
 917-C( 28 27  0) 918-C( 29 27  0) 919-C( 30 27  0) 920-C( 31 27  0)
 921-C( 32 27  0) 922-C( 33 27  0) 923-C( 28 28  0) 924-C( 29 28  0)
 925-C( 30 28  0) 926-C( 31 28  0) 927-C( 32 28  0) 928-C( 29 29  0)
 929-C( 30 29  0) 930-C( 31 29  0) 931-R( 30 30  0) 932-C(  3  2  1)
 933-C(  4  2  1) 934-C(  5  2  1) 935-C(  6  2  1) 936-C(  7  2  1)
 937-C(  8  2  1) 938-C(  9  2  1) 939-C( 10  2  1) 940-C( 11  2  1)
 941-C( 12  2  1) 942-C( 13  2  1) 943-C( 14  2  1) 944-C( 15  2  1)
 945-C( 16  2  1) 946-C( 17  2  1) 947-C( 18  2  1) 948-C( 19  2  1)
 949-C( 20  2  1) 950-C( 21  2  1) 951-C( 22  2  1) 952-C( 23  2  1)
 953-C( 24  2  1) 954-C( 25  2  1) 955-C( 26  2  1) 956-C( 27  2  1)
 957-C( 28  2  1) 958-C( 29  2  1) 959-C( 30  2  1) 960-C( 31  2  1)
 961-C(  4  3  1) 962-C(  5  3  1) 963-C(  6  3  1) 964-C(  7  3  1)
 965-C(  8  3  1) 966-C(  9  3  1) 967-C( 10  3  1) 968-C( 11  3  1)
 969-C( 12  3  1) 970-C( 13  3  1) 971-C( 14  3  1) 972-C( 15  3  1)
 973-C( 16  3  1) 974-C( 17  3  1) 975-C( 18  3  1) 976-C( 19  3  1)
 977-C( 20  3  1) 978-C( 21  3  1) 979-C( 22  3  1) 980-C( 23  3  1)
 981-C( 24  3  1) 982-C( 25  3  1) 983-C( 26  3  1) 984-C( 27  3  1)
 985-C( 28  3  1) 986-C( 29  3  1) 987-C( 30  3  1) 988-C( 31  3  1)
 989-C( 32  3  1) 990-C( 33  3  1) 991-C( 34  3  1) 992-C( 35  3  1)
 993-C( 36  3  1) 994-C( 37  3  1) 995-C( 38  3  1) 996-C( 39  3  1)
 997-C( 40  3  1) 998-C( 41  3  1) 999-C( 42  3  1)1000-C( 43  3  1)
1001-C( 44  3  1)1002-C( 45  3  1)1003-C( 46  3  1)1004-C( 47  3  1)
1005-C( 48  3  1)1006-C( 49  3  1)1007-C( 50  3  1)1008-C( 51  3  1)
1009-C( 52  3  1)1010-C( 53  3  1)1011-C( 54  3  1)1012-C( 55  3  1)
1013-C( 56  3  1)1014-C( 57  3  1)1015-C( 58  3  1)1016-C(  5  4  1)
1017-C(  6  4  1)1018-C(  7  4  1)1019-C(  8  4  1)1020-C(  9  4  1)
1021-C( 10  4  1)1022-C( 11  4  1)1023-C( 12  4  1)1024-C( 13  4  1)
1025-C( 14  4  1)1026-C( 15  4  1)1027-C( 16  4  1)1028-C( 17  4  1)
1029-C( 18  4  1)1030-C( 19  4  1)1031-C( 20  4  1)1032-C( 21  4  1)
1033-C( 22  4  1)1034-C( 23  4  1)1035-C( 24  4  1)1036-C( 25  4  1)
1037-C( 26  4  1)1038-C( 27  4  1)1039-C( 28  4  1)1040-C( 29  4  1)
1041-C( 30  4  1)1042-C( 31  4  1)1043-C( 32  4  1)1044-C( 33  4  1)
1045-C( 34  4  1)1046-C( 35  4  1)1047-C( 36  4  1)1048-C( 37  4  1)
1049-C( 38  4  1)1050-C( 39  4  1)1051-C( 40  4  1)1052-C( 41  4  1)
1053-C( 42  4  1)1054-C( 43  4  1)1055-C( 44  4  1)1056-C( 45  4  1)
1057-C( 46  4  1)1058-C( 47  4  1)1059-C( 48  4  1)1060-C( 49  4  1)
1061-C( 50  4  1)1062-C( 51  4  1)1063-C( 52  4  1)1064-C( 53  4  1)
1065-C( 54  4  1)1066-C( 55  4  1)1067-C( 56  4  1)1068-C( 57  4  1)
1069-C(  6  5  1)1070-C(  7  5  1)1071-C(  8  5  1)1072-C(  9  5  1)
1073-C( 10  5  1)1074-C( 11  5  1)1075-C( 12  5  1)1076-C( 13  5  1)
1077-C( 14  5  1)1078-C( 15  5  1)1079-C( 16  5  1)1080-C( 17  5  1)
1081-C( 18  5  1)1082-C( 19  5  1)1083-C( 20  5  1)1084-C( 21  5  1)
1085-C( 22  5  1)1086-C( 23  5  1)1087-C( 24  5  1)1088-C( 25  5  1)
1089-C( 26  5  1)1090-C( 27  5  1)1091-C( 28  5  1)1092-C( 29  5  1)
1093-C( 30  5  1)1094-C( 31  5  1)1095-C( 32  5  1)1096-C( 33  5  1)
1097-C( 34  5  1)1098-C( 35  5  1)1099-C( 36  5  1)1100-C( 37  5  1)
1101-C( 38  5  1)1102-C( 39  5  1)1103-C( 40  5  1)1104-C( 41  5  1)
1105-C( 42  5  1)1106-C( 43  5  1)1107-C( 44  5  1)1108-C( 45  5  1)
1109-C( 46  5  1)1110-C( 47  5  1)1111-C( 48  5  1)1112-C( 49  5  1)
1113-C( 50  5  1)1114-C( 51  5  1)1115-C( 52  5  1)1116-C( 53  5  1)
1117-C( 54  5  1)1118-C( 55  5  1)1119-C( 56  5  1)1120-C(  7  6  1)
1121-C(  8  6  1)1122-C(  9  6  1)1123-C( 10  6  1)1124-C( 11  6  1)
1125-C( 12  6  1)1126-C( 13  6  1)1127-C( 14  6  1)1128-C( 15  6  1)
1129-C( 16  6  1)1130-C( 17  6  1)1131-C( 18  6  1)1132-C( 19  6  1)
1133-C( 20  6  1)1134-C( 21  6  1)1135-C( 22  6  1)1136-C( 23  6  1)
1137-C( 24  6  1)1138-C( 25  6  1)1139-C( 26  6  1)1140-C( 27  6  1)
1141-C( 28  6  1)1142-C( 29  6  1)1143-C( 30  6  1)1144-C( 31  6  1)
1145-C( 32  6  1)1146-C( 33  6  1)1147-C( 34  6  1)1148-C( 35  6  1)
1149-C( 36  6  1)1150-C( 37  6  1)1151-C( 38  6  1)1152-C( 39  6  1)
1153-C( 40  6  1)1154-C( 41  6  1)1155-C( 42  6  1)1156-C( 43  6  1)
1157-C( 44  6  1)1158-C( 45  6  1)1159-C( 46  6  1)1160-C( 47  6  1)
1161-C( 48  6  1)1162-C( 49  6  1)1163-C( 50  6  1)1164-C( 51  6  1)
1165-C( 52  6  1)1166-C( 53  6  1)1167-C( 54  6  1)1168-C( 55  6  1)
1169-C(  8  7  1)1170-C(  9  7  1)1171-C( 10  7  1)1172-C( 11  7  1)
1173-C( 12  7  1)1174-C( 13  7  1)1175-C( 14  7  1)1176-C( 15  7  1)
1177-C( 16  7  1)1178-C( 17  7  1)1179-C( 18  7  1)1180-C( 19  7  1)
1181-C( 20  7  1)1182-C( 21  7  1)1183-C( 22  7  1)1184-C( 23  7  1)
1185-C( 24  7  1)1186-C( 25  7  1)1187-C( 26  7  1)1188-C( 27  7  1)
1189-C( 28  7  1)1190-C( 29  7  1)1191-C( 30  7  1)1192-C( 31  7  1)
1193-C( 32  7  1)1194-C( 33  7  1)1195-C( 34  7  1)1196-C( 35  7  1)
1197-C( 36  7  1)1198-C( 37  7  1)1199-C( 38  7  1)1200-C( 39  7  1)
1201-C( 40  7  1)1202-C( 41  7  1)1203-C( 42  7  1)1204-C( 43  7  1)
1205-C( 44  7  1)1206-C( 45  7  1)1207-C( 46  7  1)1208-C( 47  7  1)
1209-C( 48  7  1)1210-C( 49  7  1)1211-C( 50  7  1)1212-C( 51  7  1)
1213-C( 52  7  1)1214-C( 53  7  1)1215-C( 54  7  1)1216-C(  9  8  1)
1217-C( 10  8  1)1218-C( 11  8  1)1219-C( 12  8  1)1220-C( 13  8  1)
1221-C( 14  8  1)1222-C( 15  8  1)1223-C( 16  8  1)1224-C( 17  8  1)
1225-C( 18  8  1)1226-C( 19  8  1)1227-C( 20  8  1)1228-C( 21  8  1)
1229-C( 22  8  1)1230-C( 23  8  1)1231-C( 24  8  1)1232-C( 25  8  1)
1233-C( 26  8  1)1234-C( 27  8  1)1235-C( 28  8  1)1236-C( 29  8  1)
1237-C( 30  8  1)1238-C( 31  8  1)1239-C( 32  8  1)1240-C( 33  8  1)
1241-C( 34  8  1)1242-C( 35  8  1)1243-C( 36  8  1)1244-C( 37  8  1)
1245-C( 38  8  1)1246-C( 39  8  1)1247-C( 40  8  1)1248-C( 41  8  1)
1249-C( 42  8  1)1250-C( 43  8  1)1251-C( 44  8  1)1252-C( 45  8  1)
1253-C( 46  8  1)1254-C( 47  8  1)1255-C( 48  8  1)1256-C( 49  8  1)
1257-C( 50  8  1)1258-C( 51  8  1)1259-C( 52  8  1)1260-C( 53  8  1)
1261-C( 10  9  1)1262-C( 11  9  1)1263-C( 12  9  1)1264-C( 13  9  1)
1265-C( 14  9  1)1266-C( 15  9  1)1267-C( 16  9  1)1268-C( 17  9  1)
1269-C( 18  9  1)1270-C( 19  9  1)1271-C( 20  9  1)1272-C( 21  9  1)
1273-C( 22  9  1)1274-C( 23  9  1)1275-C( 24  9  1)1276-C( 25  9  1)
1277-C( 26  9  1)1278-C( 27  9  1)1279-C( 28  9  1)1280-C( 29  9  1)
1281-C( 30  9  1)1282-C( 31  9  1)1283-C( 32  9  1)1284-C( 33  9  1)
1285-C( 34  9  1)1286-C( 35  9  1)1287-C( 36  9  1)1288-C( 37  9  1)
1289-C( 38  9  1)1290-C( 39  9  1)1291-C( 40  9  1)1292-C( 41  9  1)
1293-C( 42  9  1)1294-C( 43  9  1)1295-C( 44  9  1)1296-C( 45  9  1)
1297-C( 46  9  1)1298-C( 47  9  1)1299-C( 48  9  1)1300-C( 49  9  1)
1301-C( 50  9  1)1302-C( 51  9  1)1303-C( 52  9  1)1304-C( 11 10  1)
1305-C( 12 10  1)1306-C( 13 10  1)1307-C( 14 10  1)1308-C( 15 10  1)
1309-C( 16 10  1)1310-C( 17 10  1)1311-C( 18 10  1)1312-C( 19 10  1)
1313-C( 20 10  1)1314-C( 21 10  1)1315-C( 22 10  1)1316-C( 23 10  1)
1317-C( 24 10  1)1318-C( 25 10  1)1319-C( 26 10  1)1320-C( 27 10  1)
1321-C( 28 10  1)1322-C( 29 10  1)1323-C( 30 10  1)1324-C( 31 10  1)
1325-C( 32 10  1)1326-C( 33 10  1)1327-C( 34 10  1)1328-C( 35 10  1)
1329-C( 36 10  1)1330-C( 37 10  1)1331-C( 38 10  1)1332-C( 39 10  1)
1333-C( 40 10  1)1334-C( 41 10  1)1335-C( 42 10  1)1336-C( 43 10  1)
1337-C( 44 10  1)1338-C( 45 10  1)1339-C( 46 10  1)1340-C( 47 10  1)
1341-C( 48 10  1)1342-C( 49 10  1)1343-C( 50 10  1)1344-C( 51 10  1)
1345-C( 12 11  1)1346-C( 13 11  1)1347-C( 14 11  1)1348-C( 15 11  1)
1349-C( 16 11  1)1350-C( 17 11  1)1351-C( 18 11  1)1352-C( 19 11  1)
1353-C( 20 11  1)1354-C( 21 11  1)1355-C( 22 11  1)1356-C( 23 11  1)
1357-C( 24 11  1)1358-C( 25 11  1)1359-C( 26 11  1)1360-C( 27 11  1)
1361-C( 28 11  1)1362-C( 29 11  1)1363-C( 30 11  1)1364-C( 31 11  1)
1365-C( 32 11  1)1366-C( 33 11  1)1367-C( 34 11  1)1368-C( 35 11  1)
1369-C( 36 11  1)1370-C( 37 11  1)1371-C( 38 11  1)1372-C( 39 11  1)
1373-C( 40 11  1)1374-C( 41 11  1)1375-C( 42 11  1)1376-C( 43 11  1)
1377-C( 44 11  1)1378-C( 45 11  1)1379-C( 46 11  1)1380-C( 47 11  1)
1381-C( 48 11  1)1382-C( 49 11  1)1383-C( 50 11  1)1384-C( 13 12  1)
1385-C( 14 12  1)1386-C( 15 12  1)1387-C( 16 12  1)1388-C( 17 12  1)
1389-C( 18 12  1)1390-C( 19 12  1)1391-C( 20 12  1)1392-C( 21 12  1)
1393-C( 22 12  1)1394-C( 23 12  1)1395-C( 24 12  1)1396-C( 25 12  1)
1397-C( 26 12  1)1398-C( 27 12  1)1399-C( 28 12  1)1400-C( 29 12  1)
1401-C( 30 12  1)1402-C( 31 12  1)1403-C( 32 12  1)1404-C( 33 12  1)
1405-C( 34 12  1)1406-C( 35 12  1)1407-C( 36 12  1)1408-C( 37 12  1)
1409-C( 38 12  1)1410-C( 39 12  1)1411-C( 40 12  1)1412-C( 41 12  1)
1413-C( 42 12  1)1414-C( 43 12  1)1415-C( 44 12  1)1416-C( 45 12  1)
1417-C( 46 12  1)1418-C( 47 12  1)1419-C( 48 12  1)1420-C( 49 12  1)
1421-C( 14 13  1)1422-C( 15 13  1)1423-C( 16 13  1)1424-C( 17 13  1)
1425-C( 18 13  1)1426-C( 19 13  1)1427-C( 20 13  1)1428-C( 21 13  1)
1429-C( 22 13  1)1430-C( 23 13  1)1431-C( 24 13  1)1432-C( 25 13  1)
1433-C( 26 13  1)1434-C( 27 13  1)1435-C( 28 13  1)1436-C( 29 13  1)
1437-C( 30 13  1)1438-C( 31 13  1)1439-C( 32 13  1)1440-C( 33 13  1)
1441-C( 34 13  1)1442-C( 35 13  1)1443-C( 36 13  1)1444-C( 37 13  1)
1445-C( 38 13  1)1446-C( 39 13  1)1447-C( 40 13  1)1448-C( 41 13  1)
1449-C( 42 13  1)1450-C( 43 13  1)1451-C( 44 13  1)1452-C( 45 13  1)
1453-C( 46 13  1)1454-C( 47 13  1)1455-C( 48 13  1)1456-C( 15 14  1)
1457-C( 16 14  1)1458-C( 17 14  1)1459-C( 18 14  1)1460-C( 19 14  1)
1461-C( 20 14  1)1462-C( 21 14  1)1463-C( 22 14  1)1464-C( 23 14  1)
1465-C( 24 14  1)1466-C( 25 14  1)1467-C( 26 14  1)1468-C( 27 14  1)
1469-C( 28 14  1)1470-C( 29 14  1)1471-C( 30 14  1)1472-C( 31 14  1)
1473-C( 32 14  1)1474-C( 33 14  1)1475-C( 34 14  1)1476-C( 35 14  1)
1477-C( 36 14  1)1478-C( 37 14  1)1479-C( 38 14  1)1480-C( 39 14  1)
1481-C( 40 14  1)1482-C( 41 14  1)1483-C( 42 14  1)1484-C( 43 14  1)
1485-C( 44 14  1)1486-C( 45 14  1)1487-C( 46 14  1)1488-C( 47 14  1)
1489-C( 16 15  1)1490-C( 17 15  1)1491-C( 18 15  1)1492-C( 19 15  1)
1493-C( 20 15  1)1494-C( 21 15  1)1495-C( 22 15  1)1496-C( 23 15  1)
1497-C( 24 15  1)1498-C( 25 15  1)1499-C( 26 15  1)1500-C( 27 15  1)
1501-C( 28 15  1)1502-C( 29 15  1)1503-C( 30 15  1)1504-C( 31 15  1)
1505-C( 32 15  1)1506-C( 33 15  1)1507-C( 34 15  1)1508-C( 35 15  1)
1509-C( 36 15  1)1510-C( 37 15  1)1511-C( 38 15  1)1512-C( 39 15  1)
1513-C( 40 15  1)1514-C( 41 15  1)1515-C( 42 15  1)1516-C( 43 15  1)
1517-C( 44 15  1)1518-C( 45 15  1)1519-C( 46 15  1)1520-C( 17 16  1)
1521-C( 18 16  1)1522-C( 19 16  1)1523-C( 20 16  1)1524-C( 21 16  1)
1525-C( 22 16  1)1526-C( 23 16  1)1527-C( 24 16  1)1528-C( 25 16  1)
1529-C( 26 16  1)1530-C( 27 16  1)1531-C( 28 16  1)1532-C( 29 16  1)
1533-C( 30 16  1)1534-C( 31 16  1)1535-C( 32 16  1)1536-C( 33 16  1)
1537-C( 34 16  1)1538-C( 35 16  1)1539-C( 36 16  1)1540-C( 37 16  1)
1541-C( 38 16  1)1542-C( 39 16  1)1543-C( 40 16  1)1544-C( 41 16  1)
1545-C( 42 16  1)1546-C( 43 16  1)1547-C( 44 16  1)1548-C( 45 16  1)
1549-C( 18 17  1)1550-C( 19 17  1)1551-C( 20 17  1)1552-C( 21 17  1)
1553-C( 22 17  1)1554-C( 23 17  1)1555-C( 24 17  1)1556-C( 25 17  1)
1557-C( 26 17  1)1558-C( 27 17  1)1559-C( 28 17  1)1560-C( 29 17  1)
1561-C( 30 17  1)1562-C( 31 17  1)1563-C( 32 17  1)1564-C( 33 17  1)
1565-C( 34 17  1)1566-C( 35 17  1)1567-C( 36 17  1)1568-C( 37 17  1)
1569-C( 38 17  1)1570-C( 39 17  1)1571-C( 40 17  1)1572-C( 41 17  1)
1573-C( 42 17  1)1574-C( 43 17  1)1575-C( 44 17  1)1576-C( 19 18  1)
1577-C( 20 18  1)1578-C( 21 18  1)1579-C( 22 18  1)1580-C( 23 18  1)
1581-C( 24 18  1)1582-C( 25 18  1)1583-C( 26 18  1)1584-C( 27 18  1)
1585-C( 28 18  1)1586-C( 29 18  1)1587-C( 30 18  1)1588-C( 31 18  1)
1589-C( 32 18  1)1590-C( 33 18  1)1591-C( 34 18  1)1592-C( 35 18  1)
1593-C( 36 18  1)1594-C( 37 18  1)1595-C( 38 18  1)1596-C( 39 18  1)
1597-C( 40 18  1)1598-C( 41 18  1)1599-C( 42 18  1)1600-C( 43 18  1)
1601-C( 20 19  1)1602-C( 21 19  1)1603-C( 22 19  1)1604-C( 23 19  1)
1605-C( 24 19  1)1606-C( 25 19  1)1607-C( 26 19  1)1608-C( 27 19  1)
1609-C( 28 19  1)1610-C( 29 19  1)1611-C( 30 19  1)1612-C( 31 19  1)
1613-C( 32 19  1)1614-C( 33 19  1)1615-C( 34 19  1)1616-C( 35 19  1)
1617-C( 36 19  1)1618-C( 37 19  1)1619-C( 38 19  1)1620-C( 39 19  1)
1621-C( 40 19  1)1622-C( 41 19  1)1623-C( 42 19  1)1624-C( 21 20  1)
1625-C( 22 20  1)1626-C( 23 20  1)1627-C( 24 20  1)1628-C( 25 20  1)
1629-C( 26 20  1)1630-C( 27 20  1)1631-C( 28 20  1)1632-C( 29 20  1)
1633-C( 30 20  1)1634-C( 31 20  1)1635-C( 32 20  1)1636-C( 33 20  1)
1637-C( 34 20  1)1638-C( 35 20  1)1639-C( 36 20  1)1640-C( 37 20  1)
1641-C( 38 20  1)1642-C( 39 20  1)1643-C( 40 20  1)1644-C( 41 20  1)
1645-C( 22 21  1)1646-C( 23 21  1)1647-C( 24 21  1)1648-C( 25 21  1)
1649-C( 26 21  1)1650-C( 27 21  1)1651-C( 28 21  1)1652-C( 29 21  1)
1653-C( 30 21  1)1654-C( 31 21  1)1655-C( 32 21  1)1656-C( 33 21  1)
1657-C( 34 21  1)1658-C( 35 21  1)1659-C( 36 21  1)1660-C( 37 21  1)
1661-C( 38 21  1)1662-C( 39 21  1)1663-C( 40 21  1)1664-C( 23 22  1)
1665-C( 24 22  1)1666-C( 25 22  1)1667-C( 26 22  1)1668-C( 27 22  1)
1669-C( 28 22  1)1670-C( 29 22  1)1671-C( 30 22  1)1672-C( 31 22  1)
1673-C( 32 22  1)1674-C( 33 22  1)1675-C( 34 22  1)1676-C( 35 22  1)
1677-C( 36 22  1)1678-C( 37 22  1)1679-C( 38 22  1)1680-C( 39 22  1)
1681-C( 24 23  1)1682-C( 25 23  1)1683-C( 26 23  1)1684-C( 27 23  1)
1685-C( 28 23  1)1686-C( 29 23  1)1687-C( 30 23  1)1688-C( 31 23  1)
1689-C( 32 23  1)1690-C( 33 23  1)1691-C( 34 23  1)1692-C( 35 23  1)
1693-C( 36 23  1)1694-C( 37 23  1)1695-C( 38 23  1)1696-C( 25 24  1)
1697-C( 26 24  1)1698-C( 27 24  1)1699-C( 28 24  1)1700-C( 29 24  1)
1701-C( 30 24  1)1702-C( 31 24  1)1703-C( 32 24  1)1704-C( 33 24  1)
1705-C( 34 24  1)1706-C( 35 24  1)1707-C( 36 24  1)1708-C( 37 24  1)
1709-C( 26 25  1)1710-C( 27 25  1)1711-C( 28 25  1)1712-C( 29 25  1)
1713-C( 30 25  1)1714-C( 31 25  1)1715-C( 32 25  1)1716-C( 33 25  1)
1717-C( 34 25  1)1718-C( 35 25  1)1719-C( 36 25  1)1720-C( 27 26  1)
1721-C( 28 26  1)1722-C( 29 26  1)1723-C( 30 26  1)1724-C( 31 26  1)
1725-C( 32 26  1)1726-C( 33 26  1)1727-C( 34 26  1)1728-C( 35 26  1)
1729-C( 28 27  1)1730-C( 29 27  1)1731-C( 30 27  1)1732-C( 31 27  1)
1733-C( 32 27  1)1734-C( 33 27  1)1735-C( 34 27  1)1736-C( 29 28  1)
1737-C( 30 28  1)1738-C( 31 28  1)1739-C( 32 28  1)1740-C( 33 28  1)
1741-C( 30 29  1)1742-C( 31 29  1)1743-C( 32 29  1)1744-C( 31 30  1)
1745-C(  6  4  2)1746-C(  7  4  2)1747-C(  8  4  2)1748-C(  9  4  2)
1749-C( 10  4  2)1750-C( 11  4  2)1751-C( 12  4  2)1752-C( 13  4  2)
1753-C( 14  4  2)1754-C( 15  4  2)1755-C( 16  4  2)1756-C( 17  4  2)
1757-C( 18  4  2)1758-C( 19  4  2)1759-C( 20  4  2)1760-C( 21  4  2)
1761-C( 22  4  2)1762-C( 23  4  2)1763-C( 24  4  2)1764-C( 25  4  2)
1765-C( 26  4  2)1766-C( 27  4  2)1767-C( 28  4  2)1768-C( 29  4  2)
1769-C( 30  4  2)1770-C( 31  4  2)1771-C( 32  4  2)1772-C(  7  5  2)
1773-C(  8  5  2)1774-C(  9  5  2)1775-C( 10  5  2)1776-C( 11  5  2)
1777-C( 12  5  2)1778-C( 13  5  2)1779-C( 14  5  2)1780-C( 15  5  2)
1781-C( 16  5  2)1782-C( 17  5  2)1783-C( 18  5  2)1784-C( 19  5  2)
1785-C( 20  5  2)1786-C( 21  5  2)1787-C( 22  5  2)1788-C( 23  5  2)
1789-C( 24  5  2)1790-C( 25  5  2)1791-C( 26  5  2)1792-C( 27  5  2)
1793-C( 28  5  2)1794-C( 29  5  2)1795-C( 30  5  2)1796-C( 31  5  2)
1797-C( 32  5  2)1798-C( 33  5  2)1799-C( 34  5  2)1800-C( 35  5  2)
1801-C( 36  5  2)1802-C( 37  5  2)1803-C( 38  5  2)1804-C( 39  5  2)
1805-C( 40  5  2)1806-C( 41  5  2)1807-C( 42  5  2)1808-C( 43  5  2)
1809-C( 44  5  2)1810-C( 45  5  2)1811-C( 46  5  2)1812-C( 47  5  2)
1813-C( 48  5  2)1814-C( 49  5  2)1815-C( 50  5  2)1816-C( 51  5  2)
1817-C( 52  5  2)1818-C( 53  5  2)1819-C( 54  5  2)1820-C( 55  5  2)
1821-C( 56  5  2)1822-C( 57  5  2)1823-C(  8  6  2)1824-C(  9  6  2)
1825-C( 10  6  2)1826-C( 11  6  2)1827-C( 12  6  2)1828-C( 13  6  2)
1829-C( 14  6  2)1830-C( 15  6  2)1831-C( 16  6  2)1832-C( 17  6  2)
1833-C( 18  6  2)1834-C( 19  6  2)1835-C( 20  6  2)1836-C( 21  6  2)
1837-C( 22  6  2)1838-C( 23  6  2)1839-C( 24  6  2)1840-C( 25  6  2)
1841-C( 26  6  2)1842-C( 27  6  2)1843-C( 28  6  2)1844-C( 29  6  2)
1845-C( 30  6  2)1846-C( 31  6  2)1847-C( 32  6  2)1848-C( 33  6  2)
1849-C( 34  6  2)1850-C( 35  6  2)1851-C( 36  6  2)1852-C( 37  6  2)
1853-C( 38  6  2)1854-C( 39  6  2)1855-C( 40  6  2)1856-C( 41  6  2)
1857-C( 42  6  2)1858-C( 43  6  2)1859-C( 44  6  2)1860-C( 45  6  2)
1861-C( 46  6  2)1862-C( 47  6  2)1863-C( 48  6  2)1864-C( 49  6  2)
1865-C( 50  6  2)1866-C( 51  6  2)1867-C( 52  6  2)1868-C( 53  6  2)
1869-C( 54  6  2)1870-C( 55  6  2)1871-C( 56  6  2)1872-C(  9  7  2)
1873-C( 10  7  2)1874-C( 11  7  2)1875-C( 12  7  2)1876-C( 13  7  2)
1877-C( 14  7  2)1878-C( 15  7  2)1879-C( 16  7  2)1880-C( 17  7  2)
1881-C( 18  7  2)1882-C( 19  7  2)1883-C( 20  7  2)1884-C( 21  7  2)
1885-C( 22  7  2)1886-C( 23  7  2)1887-C( 24  7  2)1888-C( 25  7  2)
1889-C( 26  7  2)1890-C( 27  7  2)1891-C( 28  7  2)1892-C( 29  7  2)
1893-C( 30  7  2)1894-C( 31  7  2)1895-C( 32  7  2)1896-C( 33  7  2)
1897-C( 34  7  2)1898-C( 35  7  2)1899-C( 36  7  2)1900-C( 37  7  2)
1901-C( 38  7  2)1902-C( 39  7  2)1903-C( 40  7  2)1904-C( 41  7  2)
1905-C( 42  7  2)1906-C( 43  7  2)1907-C( 44  7  2)1908-C( 45  7  2)
1909-C( 46  7  2)1910-C( 47  7  2)1911-C( 48  7  2)1912-C( 49  7  2)
1913-C( 50  7  2)1914-C( 51  7  2)1915-C( 52  7  2)1916-C( 53  7  2)
1917-C( 54  7  2)1918-C( 55  7  2)1919-C( 10  8  2)1920-C( 11  8  2)
1921-C( 12  8  2)1922-C( 13  8  2)1923-C( 14  8  2)1924-C( 15  8  2)
1925-C( 16  8  2)1926-C( 17  8  2)1927-C( 18  8  2)1928-C( 19  8  2)
1929-C( 20  8  2)1930-C( 21  8  2)1931-C( 22  8  2)1932-C( 23  8  2)
1933-C( 24  8  2)1934-C( 25  8  2)1935-C( 26  8  2)1936-C( 27  8  2)
1937-C( 28  8  2)1938-C( 29  8  2)1939-C( 30  8  2)1940-C( 31  8  2)
1941-C( 32  8  2)1942-C( 33  8  2)1943-C( 34  8  2)1944-C( 35  8  2)
1945-C( 36  8  2)1946-C( 37  8  2)1947-C( 38  8  2)1948-C( 39  8  2)
1949-C( 40  8  2)1950-C( 41  8  2)1951-C( 42  8  2)1952-C( 43  8  2)
1953-C( 44  8  2)1954-C( 45  8  2)1955-C( 46  8  2)1956-C( 47  8  2)
1957-C( 48  8  2)1958-C( 49  8  2)1959-C( 50  8  2)1960-C( 51  8  2)
1961-C( 52  8  2)1962-C( 53  8  2)1963-C( 54  8  2)1964-C( 11  9  2)
1965-C( 12  9  2)1966-C( 13  9  2)1967-C( 14  9  2)1968-C( 15  9  2)
1969-C( 16  9  2)1970-C( 17  9  2)1971-C( 18  9  2)1972-C( 19  9  2)
1973-C( 20  9  2)1974-C( 21  9  2)1975-C( 22  9  2)1976-C( 23  9  2)
1977-C( 24  9  2)1978-C( 25  9  2)1979-C( 26  9  2)1980-C( 27  9  2)
1981-C( 28  9  2)1982-C( 29  9  2)1983-C( 30  9  2)1984-C( 31  9  2)
1985-C( 32  9  2)1986-C( 33  9  2)1987-C( 34  9  2)1988-C( 35  9  2)
1989-C( 36  9  2)1990-C( 37  9  2)1991-C( 38  9  2)1992-C( 39  9  2)
1993-C( 40  9  2)1994-C( 41  9  2)1995-C( 42  9  2)1996-C( 43  9  2)
1997-C( 44  9  2)1998-C( 45  9  2)1999-C( 46  9  2)2000-C( 47  9  2)
2001-C( 48  9  2)2002-C( 49  9  2)2003-C( 50  9  2)2004-C( 51  9  2)
2005-C( 52  9  2)2006-C( 53  9  2)2007-C( 12 10  2)2008-C( 13 10  2)
2009-C( 14 10  2)2010-C( 15 10  2)2011-C( 16 10  2)2012-C( 17 10  2)
2013-C( 18 10  2)2014-C( 19 10  2)2015-C( 20 10  2)2016-C( 21 10  2)
2017-C( 22 10  2)2018-C( 23 10  2)2019-C( 24 10  2)2020-C( 25 10  2)
2021-C( 26 10  2)2022-C( 27 10  2)2023-C( 28 10  2)2024-C( 29 10  2)
2025-C( 30 10  2)2026-C( 31 10  2)2027-C( 32 10  2)2028-C( 33 10  2)
2029-C( 34 10  2)2030-C( 35 10  2)2031-C( 36 10  2)2032-C( 37 10  2)
2033-C( 38 10  2)2034-C( 39 10  2)2035-C( 40 10  2)2036-C( 41 10  2)
2037-C( 42 10  2)2038-C( 43 10  2)2039-C( 44 10  2)2040-C( 45 10  2)
2041-C( 46 10  2)2042-C( 47 10  2)2043-C( 48 10  2)2044-C( 49 10  2)
2045-C( 50 10  2)2046-C( 51 10  2)2047-C( 52 10  2)2048-C( 13 11  2)
2049-C( 14 11  2)2050-C( 15 11  2)2051-C( 16 11  2)2052-C( 17 11  2)
2053-C( 18 11  2)2054-C( 19 11  2)2055-C( 20 11  2)2056-C( 21 11  2)
2057-C( 22 11  2)2058-C( 23 11  2)2059-C( 24 11  2)2060-C( 25 11  2)
2061-C( 26 11  2)2062-C( 27 11  2)2063-C( 28 11  2)2064-C( 29 11  2)
2065-C( 30 11  2)2066-C( 31 11  2)2067-C( 32 11  2)2068-C( 33 11  2)
2069-C( 34 11  2)2070-C( 35 11  2)2071-C( 36 11  2)2072-C( 37 11  2)
2073-C( 38 11  2)2074-C( 39 11  2)2075-C( 40 11  2)2076-C( 41 11  2)
2077-C( 42 11  2)2078-C( 43 11  2)2079-C( 44 11  2)2080-C( 45 11  2)
2081-C( 46 11  2)2082-C( 47 11  2)2083-C( 48 11  2)2084-C( 49 11  2)
2085-C( 50 11  2)2086-C( 51 11  2)2087-C( 14 12  2)2088-C( 15 12  2)
2089-C( 16 12  2)2090-C( 17 12  2)2091-C( 18 12  2)2092-C( 19 12  2)
2093-C( 20 12  2)2094-C( 21 12  2)2095-C( 22 12  2)2096-C( 23 12  2)
2097-C( 24 12  2)2098-C( 25 12  2)2099-C( 26 12  2)2100-C( 27 12  2)
2101-C( 28 12  2)2102-C( 29 12  2)2103-C( 30 12  2)2104-C( 31 12  2)
2105-C( 32 12  2)2106-C( 33 12  2)2107-C( 34 12  2)2108-C( 35 12  2)
2109-C( 36 12  2)2110-C( 37 12  2)2111-C( 38 12  2)2112-C( 39 12  2)
2113-C( 40 12  2)2114-C( 41 12  2)2115-C( 42 12  2)2116-C( 43 12  2)
2117-C( 44 12  2)2118-C( 45 12  2)2119-C( 46 12  2)2120-C( 47 12  2)
2121-C( 48 12  2)2122-C( 49 12  2)2123-C( 50 12  2)2124-C( 15 13  2)
2125-C( 16 13  2)2126-C( 17 13  2)2127-C( 18 13  2)2128-C( 19 13  2)
2129-C( 20 13  2)2130-C( 21 13  2)2131-C( 22 13  2)2132-C( 23 13  2)
2133-C( 24 13  2)2134-C( 25 13  2)2135-C( 26 13  2)2136-C( 27 13  2)
2137-C( 28 13  2)2138-C( 29 13  2)2139-C( 30 13  2)2140-C( 31 13  2)
2141-C( 32 13  2)2142-C( 33 13  2)2143-C( 34 13  2)2144-C( 35 13  2)
2145-C( 36 13  2)2146-C( 37 13  2)2147-C( 38 13  2)2148-C( 39 13  2)
2149-C( 40 13  2)2150-C( 41 13  2)2151-C( 42 13  2)2152-C( 43 13  2)
2153-C( 44 13  2)2154-C( 45 13  2)2155-C( 46 13  2)2156-C( 47 13  2)
2157-C( 48 13  2)2158-C( 49 13  2)2159-C( 16 14  2)2160-C( 17 14  2)
2161-C( 18 14  2)2162-C( 19 14  2)2163-C( 20 14  2)2164-C( 21 14  2)
2165-C( 22 14  2)2166-C( 23 14  2)2167-C( 24 14  2)2168-C( 25 14  2)
2169-C( 26 14  2)2170-C( 27 14  2)2171-C( 28 14  2)2172-C( 29 14  2)
2173-C( 30 14  2)2174-C( 31 14  2)2175-C( 32 14  2)2176-C( 33 14  2)
2177-C( 34 14  2)2178-C( 35 14  2)2179-C( 36 14  2)2180-C( 37 14  2)
2181-C( 38 14  2)2182-C( 39 14  2)2183-C( 40 14  2)2184-C( 41 14  2)
2185-C( 42 14  2)2186-C( 43 14  2)2187-C( 44 14  2)2188-C( 45 14  2)
2189-C( 46 14  2)2190-C( 47 14  2)2191-C( 48 14  2)2192-C( 17 15  2)
2193-C( 18 15  2)2194-C( 19 15  2)2195-C( 20 15  2)2196-C( 21 15  2)
2197-C( 22 15  2)2198-C( 23 15  2)2199-C( 24 15  2)2200-C( 25 15  2)
2201-C( 26 15  2)2202-C( 27 15  2)2203-C( 28 15  2)2204-C( 29 15  2)
2205-C( 30 15  2)2206-C( 31 15  2)2207-C( 32 15  2)2208-C( 33 15  2)
2209-C( 34 15  2)2210-C( 35 15  2)2211-C( 36 15  2)2212-C( 37 15  2)
2213-C( 38 15  2)2214-C( 39 15  2)2215-C( 40 15  2)2216-C( 41 15  2)
2217-C( 42 15  2)2218-C( 43 15  2)2219-C( 44 15  2)2220-C( 45 15  2)
2221-C( 46 15  2)2222-C( 47 15  2)2223-C( 18 16  2)2224-C( 19 16  2)
2225-C( 20 16  2)2226-C( 21 16  2)2227-C( 22 16  2)2228-C( 23 16  2)
2229-C( 24 16  2)2230-C( 25 16  2)2231-C( 26 16  2)2232-C( 27 16  2)
2233-C( 28 16  2)2234-C( 29 16  2)2235-C( 30 16  2)2236-C( 31 16  2)
2237-C( 32 16  2)2238-C( 33 16  2)2239-C( 34 16  2)2240-C( 35 16  2)
2241-C( 36 16  2)2242-C( 37 16  2)2243-C( 38 16  2)2244-C( 39 16  2)
2245-C( 40 16  2)2246-C( 41 16  2)2247-C( 42 16  2)2248-C( 43 16  2)
2249-C( 44 16  2)2250-C( 45 16  2)2251-C( 46 16  2)2252-C( 19 17  2)
2253-C( 20 17  2)2254-C( 21 17  2)2255-C( 22 17  2)2256-C( 23 17  2)
2257-C( 24 17  2)2258-C( 25 17  2)2259-C( 26 17  2)2260-C( 27 17  2)
2261-C( 28 17  2)2262-C( 29 17  2)2263-C( 30 17  2)2264-C( 31 17  2)
2265-C( 32 17  2)2266-C( 33 17  2)2267-C( 34 17  2)2268-C( 35 17  2)
2269-C( 36 17  2)2270-C( 37 17  2)2271-C( 38 17  2)2272-C( 39 17  2)
2273-C( 40 17  2)2274-C( 41 17  2)2275-C( 42 17  2)2276-C( 43 17  2)
2277-C( 44 17  2)2278-C( 45 17  2)2279-C( 20 18  2)2280-C( 21 18  2)
2281-C( 22 18  2)2282-C( 23 18  2)2283-C( 24 18  2)2284-C( 25 18  2)
2285-C( 26 18  2)2286-C( 27 18  2)2287-C( 28 18  2)2288-C( 29 18  2)
2289-C( 30 18  2)2290-C( 31 18  2)2291-C( 32 18  2)2292-C( 33 18  2)
2293-C( 34 18  2)2294-C( 35 18  2)2295-C( 36 18  2)2296-C( 37 18  2)
2297-C( 38 18  2)2298-C( 39 18  2)2299-C( 40 18  2)2300-C( 41 18  2)
2301-C( 42 18  2)2302-C( 43 18  2)2303-C( 44 18  2)2304-C( 21 19  2)
2305-C( 22 19  2)2306-C( 23 19  2)2307-C( 24 19  2)2308-C( 25 19  2)
2309-C( 26 19  2)2310-C( 27 19  2)2311-C( 28 19  2)2312-C( 29 19  2)
2313-C( 30 19  2)2314-C( 31 19  2)2315-C( 32 19  2)2316-C( 33 19  2)
2317-C( 34 19  2)2318-C( 35 19  2)2319-C( 36 19  2)2320-C( 37 19  2)
2321-C( 38 19  2)2322-C( 39 19  2)2323-C( 40 19  2)2324-C( 41 19  2)
2325-C( 42 19  2)2326-C( 43 19  2)2327-C( 22 20  2)2328-C( 23 20  2)
2329-C( 24 20  2)2330-C( 25 20  2)2331-C( 26 20  2)2332-C( 27 20  2)
2333-C( 28 20  2)2334-C( 29 20  2)2335-C( 30 20  2)2336-C( 31 20  2)
2337-C( 32 20  2)2338-C( 33 20  2)2339-C( 34 20  2)2340-C( 35 20  2)
2341-C( 36 20  2)2342-C( 37 20  2)2343-C( 38 20  2)2344-C( 39 20  2)
2345-C( 40 20  2)2346-C( 41 20  2)2347-C( 42 20  2)2348-C( 23 21  2)
2349-C( 24 21  2)2350-C( 25 21  2)2351-C( 26 21  2)2352-C( 27 21  2)
2353-C( 28 21  2)2354-C( 29 21  2)2355-C( 30 21  2)2356-C( 31 21  2)
2357-C( 32 21  2)2358-C( 33 21  2)2359-C( 34 21  2)2360-C( 35 21  2)
2361-C( 36 21  2)2362-C( 37 21  2)2363-C( 38 21  2)2364-C( 39 21  2)
2365-C( 40 21  2)2366-C( 41 21  2)2367-C( 24 22  2)2368-C( 25 22  2)
2369-C( 26 22  2)2370-C( 27 22  2)2371-C( 28 22  2)2372-C( 29 22  2)
2373-C( 30 22  2)2374-C( 31 22  2)2375-C( 32 22  2)2376-C( 33 22  2)
2377-C( 34 22  2)2378-C( 35 22  2)2379-C( 36 22  2)2380-C( 37 22  2)
2381-C( 38 22  2)2382-C( 39 22  2)2383-C( 40 22  2)2384-C( 25 23  2)
2385-C( 26 23  2)2386-C( 27 23  2)2387-C( 28 23  2)2388-C( 29 23  2)
2389-C( 30 23  2)2390-C( 31 23  2)2391-C( 32 23  2)2392-C( 33 23  2)
2393-C( 34 23  2)2394-C( 35 23  2)2395-C( 36 23  2)2396-C( 37 23  2)
2397-C( 38 23  2)2398-C( 39 23  2)2399-C( 26 24  2)2400-C( 27 24  2)
2401-C( 28 24  2)2402-C( 29 24  2)2403-C( 30 24  2)2404-C( 31 24  2)
2405-C( 32 24  2)2406-C( 33 24  2)2407-C( 34 24  2)2408-C( 35 24  2)
2409-C( 36 24  2)2410-C( 37 24  2)2411-C( 38 24  2)2412-C( 27 25  2)
2413-C( 28 25  2)2414-C( 29 25  2)2415-C( 30 25  2)2416-C( 31 25  2)
2417-C( 32 25  2)2418-C( 33 25  2)2419-C( 34 25  2)2420-C( 35 25  2)
2421-C( 36 25  2)2422-C( 37 25  2)2423-C( 28 26  2)2424-C( 29 26  2)
2425-C( 30 26  2)2426-C( 31 26  2)2427-C( 32 26  2)2428-C( 33 26  2)
2429-C( 34 26  2)2430-C( 35 26  2)2431-C( 36 26  2)2432-C( 29 27  2)
2433-C( 30 27  2)2434-C( 31 27  2)2435-C( 32 27  2)2436-C( 33 27  2)
2437-C( 34 27  2)2438-C( 35 27  2)2439-C( 30 28  2)2440-C( 31 28  2)
2441-C( 32 28  2)2442-C( 33 28  2)2443-C( 34 28  2)2444-C( 31 29  2)
2445-C( 32 29  2)2446-C( 33 29  2)2447-C( 32 30  2)2448-C(  9  6  3)
2449-C( 10  6  3)2450-C( 11  6  3)2451-C( 12  6  3)2452-C( 13  6  3)
2453-C( 14  6  3)2454-C( 15  6  3)2455-C( 16  6  3)2456-C( 17  6  3)
2457-C( 18  6  3)2458-C( 19  6  3)2459-C( 20  6  3)2460-C( 21  6  3)
2461-C( 22  6  3)2462-C( 23  6  3)2463-C( 24  6  3)2464-C( 25  6  3)
2465-C( 26  6  3)2466-C( 27  6  3)2467-C( 28  6  3)2468-C( 29  6  3)
2469-C( 30  6  3)2470-C( 31  6  3)2471-C( 32  6  3)2472-C( 33  6  3)
2473-C( 10  7  3)2474-C( 11  7  3)2475-C( 12  7  3)2476-C( 13  7  3)
2477-C( 14  7  3)2478-C( 15  7  3)2479-C( 16  7  3)2480-C( 17  7  3)
2481-C( 18  7  3)2482-C( 19  7  3)2483-C( 20  7  3)2484-C( 21  7  3)
2485-C( 22  7  3)2486-C( 23  7  3)2487-C( 24  7  3)2488-C( 25  7  3)
2489-C( 26  7  3)2490-C( 27  7  3)2491-C( 28  7  3)2492-C( 29  7  3)
2493-C( 30  7  3)2494-C( 31  7  3)2495-C( 32  7  3)2496-C( 33  7  3)
2497-C( 34  7  3)2498-C( 35  7  3)2499-C( 36  7  3)2500-C( 37  7  3)
2501-C( 38  7  3)2502-C( 39  7  3)2503-C( 40  7  3)2504-C( 41  7  3)
2505-C( 42  7  3)2506-C( 43  7  3)2507-C( 44  7  3)2508-C( 45  7  3)
2509-C( 46  7  3)2510-C( 47  7  3)2511-C( 48  7  3)2512-C( 49  7  3)
2513-C( 50  7  3)2514-C( 51  7  3)2515-C( 52  7  3)2516-C( 53  7  3)
2517-C( 54  7  3)2518-C( 55  7  3)2519-C( 56  7  3)2520-C( 11  8  3)
2521-C( 12  8  3)2522-C( 13  8  3)2523-C( 14  8  3)2524-C( 15  8  3)
2525-C( 16  8  3)2526-C( 17  8  3)2527-C( 18  8  3)2528-C( 19  8  3)
2529-C( 20  8  3)2530-C( 21  8  3)2531-C( 22  8  3)2532-C( 23  8  3)
2533-C( 24  8  3)2534-C( 25  8  3)2535-C( 26  8  3)2536-C( 27  8  3)
2537-C( 28  8  3)2538-C( 29  8  3)2539-C( 30  8  3)2540-C( 31  8  3)
2541-C( 32  8  3)2542-C( 33  8  3)2543-C( 34  8  3)2544-C( 35  8  3)
2545-C( 36  8  3)2546-C( 37  8  3)2547-C( 38  8  3)2548-C( 39  8  3)
2549-C( 40  8  3)2550-C( 41  8  3)2551-C( 42  8  3)2552-C( 43  8  3)
2553-C( 44  8  3)2554-C( 45  8  3)2555-C( 46  8  3)2556-C( 47  8  3)
2557-C( 48  8  3)2558-C( 49  8  3)2559-C( 50  8  3)2560-C( 51  8  3)
2561-C( 52  8  3)2562-C( 53  8  3)2563-C( 54  8  3)2564-C( 55  8  3)
2565-C( 12  9  3)2566-C( 13  9  3)2567-C( 14  9  3)2568-C( 15  9  3)
2569-C( 16  9  3)2570-C( 17  9  3)2571-C( 18  9  3)2572-C( 19  9  3)
2573-C( 20  9  3)2574-C( 21  9  3)2575-C( 22  9  3)2576-C( 23  9  3)
2577-C( 24  9  3)2578-C( 25  9  3)2579-C( 26  9  3)2580-C( 27  9  3)
2581-C( 28  9  3)2582-C( 29  9  3)2583-C( 30  9  3)2584-C( 31  9  3)
2585-C( 32  9  3)2586-C( 33  9  3)2587-C( 34  9  3)2588-C( 35  9  3)
2589-C( 36  9  3)2590-C( 37  9  3)2591-C( 38  9  3)2592-C( 39  9  3)
2593-C( 40  9  3)2594-C( 41  9  3)2595-C( 42  9  3)2596-C( 43  9  3)
2597-C( 44  9  3)2598-C( 45  9  3)2599-C( 46  9  3)2600-C( 47  9  3)
2601-C( 48  9  3)2602-C( 49  9  3)2603-C( 50  9  3)2604-C( 51  9  3)
2605-C( 52  9  3)2606-C( 53  9  3)2607-C( 54  9  3)2608-C( 13 10  3)
2609-C( 14 10  3)2610-C( 15 10  3)2611-C( 16 10  3)2612-C( 17 10  3)
2613-C( 18 10  3)2614-C( 19 10  3)2615-C( 20 10  3)2616-C( 21 10  3)
2617-C( 22 10  3)2618-C( 23 10  3)2619-C( 24 10  3)2620-C( 25 10  3)
2621-C( 26 10  3)2622-C( 27 10  3)2623-C( 28 10  3)2624-C( 29 10  3)
2625-C( 30 10  3)2626-C( 31 10  3)2627-C( 32 10  3)2628-C( 33 10  3)
2629-C( 34 10  3)2630-C( 35 10  3)2631-C( 36 10  3)2632-C( 37 10  3)
2633-C( 38 10  3)2634-C( 39 10  3)2635-C( 40 10  3)2636-C( 41 10  3)
2637-C( 42 10  3)2638-C( 43 10  3)2639-C( 44 10  3)2640-C( 45 10  3)
2641-C( 46 10  3)2642-C( 47 10  3)2643-C( 48 10  3)2644-C( 49 10  3)
2645-C( 50 10  3)2646-C( 51 10  3)2647-C( 52 10  3)2648-C( 53 10  3)
2649-C( 14 11  3)2650-C( 15 11  3)2651-C( 16 11  3)2652-C( 17 11  3)
2653-C( 18 11  3)2654-C( 19 11  3)2655-C( 20 11  3)2656-C( 21 11  3)
2657-C( 22 11  3)2658-C( 23 11  3)2659-C( 24 11  3)2660-C( 25 11  3)
2661-C( 26 11  3)2662-C( 27 11  3)2663-C( 28 11  3)2664-C( 29 11  3)
2665-C( 30 11  3)2666-C( 31 11  3)2667-C( 32 11  3)2668-C( 33 11  3)
2669-C( 34 11  3)2670-C( 35 11  3)2671-C( 36 11  3)2672-C( 37 11  3)
2673-C( 38 11  3)2674-C( 39 11  3)2675-C( 40 11  3)2676-C( 41 11  3)
2677-C( 42 11  3)2678-C( 43 11  3)2679-C( 44 11  3)2680-C( 45 11  3)
2681-C( 46 11  3)2682-C( 47 11  3)2683-C( 48 11  3)2684-C( 49 11  3)
2685-C( 50 11  3)2686-C( 51 11  3)2687-C( 52 11  3)2688-C( 15 12  3)
2689-C( 16 12  3)2690-C( 17 12  3)2691-C( 18 12  3)2692-C( 19 12  3)
2693-C( 20 12  3)2694-C( 21 12  3)2695-C( 22 12  3)2696-C( 23 12  3)
2697-C( 24 12  3)2698-C( 25 12  3)2699-C( 26 12  3)2700-C( 27 12  3)
2701-C( 28 12  3)2702-C( 29 12  3)2703-C( 30 12  3)2704-C( 31 12  3)
2705-C( 32 12  3)2706-C( 33 12  3)2707-C( 34 12  3)2708-C( 35 12  3)
2709-C( 36 12  3)2710-C( 37 12  3)2711-C( 38 12  3)2712-C( 39 12  3)
2713-C( 40 12  3)2714-C( 41 12  3)2715-C( 42 12  3)2716-C( 43 12  3)
2717-C( 44 12  3)2718-C( 45 12  3)2719-C( 46 12  3)2720-C( 47 12  3)
2721-C( 48 12  3)2722-C( 49 12  3)2723-C( 50 12  3)2724-C( 51 12  3)
2725-C( 16 13  3)2726-C( 17 13  3)2727-C( 18 13  3)2728-C( 19 13  3)
2729-C( 20 13  3)2730-C( 21 13  3)2731-C( 22 13  3)2732-C( 23 13  3)
2733-C( 24 13  3)2734-C( 25 13  3)2735-C( 26 13  3)2736-C( 27 13  3)
2737-C( 28 13  3)2738-C( 29 13  3)2739-C( 30 13  3)2740-C( 31 13  3)
2741-C( 32 13  3)2742-C( 33 13  3)2743-C( 34 13  3)2744-C( 35 13  3)
2745-C( 36 13  3)2746-C( 37 13  3)2747-C( 38 13  3)2748-C( 39 13  3)
2749-C( 40 13  3)2750-C( 41 13  3)2751-C( 42 13  3)2752-C( 43 13  3)
2753-C( 44 13  3)2754-C( 45 13  3)2755-C( 46 13  3)2756-C( 47 13  3)
2757-C( 48 13  3)2758-C( 49 13  3)2759-C( 50 13  3)2760-C( 17 14  3)
2761-C( 18 14  3)2762-C( 19 14  3)2763-C( 20 14  3)2764-C( 21 14  3)
2765-C( 22 14  3)2766-C( 23 14  3)2767-C( 24 14  3)2768-C( 25 14  3)
2769-C( 26 14  3)2770-C( 27 14  3)2771-C( 28 14  3)2772-C( 29 14  3)
2773-C( 30 14  3)2774-C( 31 14  3)2775-C( 32 14  3)2776-C( 33 14  3)
2777-C( 34 14  3)2778-C( 35 14  3)2779-C( 36 14  3)2780-C( 37 14  3)
2781-C( 38 14  3)2782-C( 39 14  3)2783-C( 40 14  3)2784-C( 41 14  3)
2785-C( 42 14  3)2786-C( 43 14  3)2787-C( 44 14  3)2788-C( 45 14  3)
2789-C( 46 14  3)2790-C( 47 14  3)2791-C( 48 14  3)2792-C( 49 14  3)
2793-C( 18 15  3)2794-C( 19 15  3)2795-C( 20 15  3)2796-C( 21 15  3)
2797-C( 22 15  3)2798-C( 23 15  3)2799-C( 24 15  3)2800-C( 25 15  3)
2801-C( 26 15  3)2802-C( 27 15  3)2803-C( 28 15  3)2804-C( 29 15  3)
2805-C( 30 15  3)2806-C( 31 15  3)2807-C( 32 15  3)2808-C( 33 15  3)
2809-C( 34 15  3)2810-C( 35 15  3)2811-C( 36 15  3)2812-C( 37 15  3)
2813-C( 38 15  3)2814-C( 39 15  3)2815-C( 40 15  3)2816-C( 41 15  3)
2817-C( 42 15  3)2818-C( 43 15  3)2819-C( 44 15  3)2820-C( 45 15  3)
2821-C( 46 15  3)2822-C( 47 15  3)2823-C( 48 15  3)2824-C( 19 16  3)
2825-C( 20 16  3)2826-C( 21 16  3)2827-C( 22 16  3)2828-C( 23 16  3)
2829-C( 24 16  3)2830-C( 25 16  3)2831-C( 26 16  3)2832-C( 27 16  3)
2833-C( 28 16  3)2834-C( 29 16  3)2835-C( 30 16  3)2836-C( 31 16  3)
2837-C( 32 16  3)2838-C( 33 16  3)2839-C( 34 16  3)2840-C( 35 16  3)
2841-C( 36 16  3)2842-C( 37 16  3)2843-C( 38 16  3)2844-C( 39 16  3)
2845-C( 40 16  3)2846-C( 41 16  3)2847-C( 42 16  3)2848-C( 43 16  3)
2849-C( 44 16  3)2850-C( 45 16  3)2851-C( 46 16  3)2852-C( 47 16  3)
2853-C( 20 17  3)2854-C( 21 17  3)2855-C( 22 17  3)2856-C( 23 17  3)
2857-C( 24 17  3)2858-C( 25 17  3)2859-C( 26 17  3)2860-C( 27 17  3)
2861-C( 28 17  3)2862-C( 29 17  3)2863-C( 30 17  3)2864-C( 31 17  3)
2865-C( 32 17  3)2866-C( 33 17  3)2867-C( 34 17  3)2868-C( 35 17  3)
2869-C( 36 17  3)2870-C( 37 17  3)2871-C( 38 17  3)2872-C( 39 17  3)
2873-C( 40 17  3)2874-C( 41 17  3)2875-C( 42 17  3)2876-C( 43 17  3)
2877-C( 44 17  3)2878-C( 45 17  3)2879-C( 46 17  3)2880-C( 21 18  3)
2881-C( 22 18  3)2882-C( 23 18  3)2883-C( 24 18  3)2884-C( 25 18  3)
2885-C( 26 18  3)2886-C( 27 18  3)2887-C( 28 18  3)2888-C( 29 18  3)
2889-C( 30 18  3)2890-C( 31 18  3)2891-C( 32 18  3)2892-C( 33 18  3)
2893-C( 34 18  3)2894-C( 35 18  3)2895-C( 36 18  3)2896-C( 37 18  3)
2897-C( 38 18  3)2898-C( 39 18  3)2899-C( 40 18  3)2900-C( 41 18  3)
2901-C( 42 18  3)2902-C( 43 18  3)2903-C( 44 18  3)2904-C( 45 18  3)
2905-C( 22 19  3)2906-C( 23 19  3)2907-C( 24 19  3)2908-C( 25 19  3)
2909-C( 26 19  3)2910-C( 27 19  3)2911-C( 28 19  3)2912-C( 29 19  3)
2913-C( 30 19  3)2914-C( 31 19  3)2915-C( 32 19  3)2916-C( 33 19  3)
2917-C( 34 19  3)2918-C( 35 19  3)2919-C( 36 19  3)2920-C( 37 19  3)
2921-C( 38 19  3)2922-C( 39 19  3)2923-C( 40 19  3)2924-C( 41 19  3)
2925-C( 42 19  3)2926-C( 43 19  3)2927-C( 44 19  3)2928-C( 23 20  3)
2929-C( 24 20  3)2930-C( 25 20  3)2931-C( 26 20  3)2932-C( 27 20  3)
2933-C( 28 20  3)2934-C( 29 20  3)2935-C( 30 20  3)2936-C( 31 20  3)
2937-C( 32 20  3)2938-C( 33 20  3)2939-C( 34 20  3)2940-C( 35 20  3)
2941-C( 36 20  3)2942-C( 37 20  3)2943-C( 38 20  3)2944-C( 39 20  3)
2945-C( 40 20  3)2946-C( 41 20  3)2947-C( 42 20  3)2948-C( 43 20  3)
2949-C( 24 21  3)2950-C( 25 21  3)2951-C( 26 21  3)2952-C( 27 21  3)
2953-C( 28 21  3)2954-C( 29 21  3)2955-C( 30 21  3)2956-C( 31 21  3)
2957-C( 32 21  3)2958-C( 33 21  3)2959-C( 34 21  3)2960-C( 35 21  3)
2961-C( 36 21  3)2962-C( 37 21  3)2963-C( 38 21  3)2964-C( 39 21  3)
2965-C( 40 21  3)2966-C( 41 21  3)2967-C( 42 21  3)2968-C( 25 22  3)
2969-C( 26 22  3)2970-C( 27 22  3)2971-C( 28 22  3)2972-C( 29 22  3)
2973-C( 30 22  3)2974-C( 31 22  3)2975-C( 32 22  3)2976-C( 33 22  3)
2977-C( 34 22  3)2978-C( 35 22  3)2979-C( 36 22  3)2980-C( 37 22  3)
2981-C( 38 22  3)2982-C( 39 22  3)2983-C( 40 22  3)2984-C( 41 22  3)
2985-C( 26 23  3)2986-C( 27 23  3)2987-C( 28 23  3)2988-C( 29 23  3)
2989-C( 30 23  3)2990-C( 31 23  3)2991-C( 32 23  3)2992-C( 33 23  3)
2993-C( 34 23  3)2994-C( 35 23  3)2995-C( 36 23  3)2996-C( 37 23  3)
2997-C( 38 23  3)2998-C( 39 23  3)2999-C( 40 23  3)3000-C( 27 24  3)
3001-C( 28 24  3)3002-C( 29 24  3)3003-C( 30 24  3)3004-C( 31 24  3)
3005-C( 32 24  3)3006-C( 33 24  3)3007-C( 34 24  3)3008-C( 35 24  3)
3009-C( 36 24  3)3010-C( 37 24  3)3011-C( 38 24  3)3012-C( 39 24  3)
3013-C( 28 25  3)3014-C( 29 25  3)3015-C( 30 25  3)3016-C( 31 25  3)
3017-C( 32 25  3)3018-C( 33 25  3)3019-C( 34 25  3)3020-C( 35 25  3)
3021-C( 36 25  3)3022-C( 37 25  3)3023-C( 38 25  3)3024-C( 29 26  3)
3025-C( 30 26  3)3026-C( 31 26  3)3027-C( 32 26  3)3028-C( 33 26  3)
3029-C( 34 26  3)3030-C( 35 26  3)3031-C( 36 26  3)3032-C( 37 26  3)
3033-C( 30 27  3)3034-C( 31 27  3)3035-C( 32 27  3)3036-C( 33 27  3)
3037-C( 34 27  3)3038-C( 35 27  3)3039-C( 36 27  3)3040-C( 31 28  3)
3041-C( 32 28  3)3042-C( 33 28  3)3043-C( 34 28  3)3044-C( 35 28  3)
3045-C( 32 29  3)3046-C( 33 29  3)3047-C( 34 29  3)3048-C( 33 30  3)
3049-C( 12  8  4)3050-C( 13  8  4)3051-C( 14  8  4)3052-C( 15  8  4)
3053-C( 16  8  4)3054-C( 17  8  4)3055-C( 18  8  4)3056-C( 19  8  4)
3057-C( 20  8  4)3058-C( 21  8  4)3059-C( 22  8  4)3060-C( 23  8  4)
3061-C( 24  8  4)3062-C( 25  8  4)3063-C( 26  8  4)3064-C( 27  8  4)
3065-C( 28  8  4)3066-C( 29  8  4)3067-C( 30  8  4)3068-C( 31  8  4)
3069-C( 32  8  4)3070-C( 33  8  4)3071-C( 34  8  4)3072-C( 13  9  4)
3073-C( 14  9  4)3074-C( 15  9  4)3075-C( 16  9  4)3076-C( 17  9  4)
3077-C( 18  9  4)3078-C( 19  9  4)3079-C( 20  9  4)3080-C( 21  9  4)
3081-C( 22  9  4)3082-C( 23  9  4)3083-C( 24  9  4)3084-C( 25  9  4)
3085-C( 26  9  4)3086-C( 27  9  4)3087-C( 28  9  4)3088-C( 29  9  4)
3089-C( 30  9  4)3090-C( 31  9  4)3091-C( 32  9  4)3092-C( 33  9  4)
3093-C( 34  9  4)3094-C( 35  9  4)3095-C( 36  9  4)3096-C( 37  9  4)
3097-C( 38  9  4)3098-C( 39  9  4)3099-C( 40  9  4)3100-C( 41  9  4)
3101-C( 42  9  4)3102-C( 43  9  4)3103-C( 44  9  4)3104-C( 45  9  4)
3105-C( 46  9  4)3106-C( 47  9  4)3107-C( 48  9  4)3108-C( 49  9  4)
3109-C( 50  9  4)3110-C( 51  9  4)3111-C( 52  9  4)3112-C( 53  9  4)
3113-C( 54  9  4)3114-C( 55  9  4)3115-C( 14 10  4)3116-C( 15 10  4)
3117-C( 16 10  4)3118-C( 17 10  4)3119-C( 18 10  4)3120-C( 19 10  4)
3121-C( 20 10  4)3122-C( 21 10  4)3123-C( 22 10  4)3124-C( 23 10  4)
3125-C( 24 10  4)3126-C( 25 10  4)3127-C( 26 10  4)3128-C( 27 10  4)
3129-C( 28 10  4)3130-C( 29 10  4)3131-C( 30 10  4)3132-C( 31 10  4)
3133-C( 32 10  4)3134-C( 33 10  4)3135-C( 34 10  4)3136-C( 35 10  4)
3137-C( 36 10  4)3138-C( 37 10  4)3139-C( 38 10  4)3140-C( 39 10  4)
3141-C( 40 10  4)3142-C( 41 10  4)3143-C( 42 10  4)3144-C( 43 10  4)
3145-C( 44 10  4)3146-C( 45 10  4)3147-C( 46 10  4)3148-C( 47 10  4)
3149-C( 48 10  4)3150-C( 49 10  4)3151-C( 50 10  4)3152-C( 51 10  4)
3153-C( 52 10  4)3154-C( 53 10  4)3155-C( 54 10  4)3156-C( 15 11  4)
3157-C( 16 11  4)3158-C( 17 11  4)3159-C( 18 11  4)3160-C( 19 11  4)
3161-C( 20 11  4)3162-C( 21 11  4)3163-C( 22 11  4)3164-C( 23 11  4)
3165-C( 24 11  4)3166-C( 25 11  4)3167-C( 26 11  4)3168-C( 27 11  4)
3169-C( 28 11  4)3170-C( 29 11  4)3171-C( 30 11  4)3172-C( 31 11  4)
3173-C( 32 11  4)3174-C( 33 11  4)3175-C( 34 11  4)3176-C( 35 11  4)
3177-C( 36 11  4)3178-C( 37 11  4)3179-C( 38 11  4)3180-C( 39 11  4)
3181-C( 40 11  4)3182-C( 41 11  4)3183-C( 42 11  4)3184-C( 43 11  4)
3185-C( 44 11  4)3186-C( 45 11  4)3187-C( 46 11  4)3188-C( 47 11  4)
3189-C( 48 11  4)3190-C( 49 11  4)3191-C( 50 11  4)3192-C( 51 11  4)
3193-C( 52 11  4)3194-C( 53 11  4)3195-C( 16 12  4)3196-C( 17 12  4)
3197-C( 18 12  4)3198-C( 19 12  4)3199-C( 20 12  4)3200-C( 21 12  4)
3201-C( 22 12  4)3202-C( 23 12  4)3203-C( 24 12  4)3204-C( 25 12  4)
3205-C( 26 12  4)3206-C( 27 12  4)3207-C( 28 12  4)3208-C( 29 12  4)
3209-C( 30 12  4)3210-C( 31 12  4)3211-C( 32 12  4)3212-C( 33 12  4)
3213-C( 34 12  4)3214-C( 35 12  4)3215-C( 36 12  4)3216-C( 37 12  4)
3217-C( 38 12  4)3218-C( 39 12  4)3219-C( 40 12  4)3220-C( 41 12  4)
3221-C( 42 12  4)3222-C( 43 12  4)3223-C( 44 12  4)3224-C( 45 12  4)
3225-C( 46 12  4)3226-C( 47 12  4)3227-C( 48 12  4)3228-C( 49 12  4)
3229-C( 50 12  4)3230-C( 51 12  4)3231-C( 52 12  4)3232-C( 17 13  4)
3233-C( 18 13  4)3234-C( 19 13  4)3235-C( 20 13  4)3236-C( 21 13  4)
3237-C( 22 13  4)3238-C( 23 13  4)3239-C( 24 13  4)3240-C( 25 13  4)
3241-C( 26 13  4)3242-C( 27 13  4)3243-C( 28 13  4)3244-C( 29 13  4)
3245-C( 30 13  4)3246-C( 31 13  4)3247-C( 32 13  4)3248-C( 33 13  4)
3249-C( 34 13  4)3250-C( 35 13  4)3251-C( 36 13  4)3252-C( 37 13  4)
3253-C( 38 13  4)3254-C( 39 13  4)3255-C( 40 13  4)3256-C( 41 13  4)
3257-C( 42 13  4)3258-C( 43 13  4)3259-C( 44 13  4)3260-C( 45 13  4)
3261-C( 46 13  4)3262-C( 47 13  4)3263-C( 48 13  4)3264-C( 49 13  4)
3265-C( 50 13  4)3266-C( 51 13  4)3267-C( 18 14  4)3268-C( 19 14  4)
3269-C( 20 14  4)3270-C( 21 14  4)3271-C( 22 14  4)3272-C( 23 14  4)
3273-C( 24 14  4)3274-C( 25 14  4)3275-C( 26 14  4)3276-C( 27 14  4)
3277-C( 28 14  4)3278-C( 29 14  4)3279-C( 30 14  4)3280-C( 31 14  4)
3281-C( 32 14  4)3282-C( 33 14  4)3283-C( 34 14  4)3284-C( 35 14  4)
3285-C( 36 14  4)3286-C( 37 14  4)3287-C( 38 14  4)3288-C( 39 14  4)
3289-C( 40 14  4)3290-C( 41 14  4)3291-C( 42 14  4)3292-C( 43 14  4)
3293-C( 44 14  4)3294-C( 45 14  4)3295-C( 46 14  4)3296-C( 47 14  4)
3297-C( 48 14  4)3298-C( 49 14  4)3299-C( 50 14  4)3300-C( 19 15  4)
3301-C( 20 15  4)3302-C( 21 15  4)3303-C( 22 15  4)3304-C( 23 15  4)
3305-C( 24 15  4)3306-C( 25 15  4)3307-C( 26 15  4)3308-C( 27 15  4)
3309-C( 28 15  4)3310-C( 29 15  4)3311-C( 30 15  4)3312-C( 31 15  4)
3313-C( 32 15  4)3314-C( 33 15  4)3315-C( 34 15  4)3316-C( 35 15  4)
3317-C( 36 15  4)3318-C( 37 15  4)3319-C( 38 15  4)3320-C( 39 15  4)
3321-C( 40 15  4)3322-C( 41 15  4)3323-C( 42 15  4)3324-C( 43 15  4)
3325-C( 44 15  4)3326-C( 45 15  4)3327-C( 46 15  4)3328-C( 47 15  4)
3329-C( 48 15  4)3330-C( 49 15  4)3331-C( 20 16  4)3332-C( 21 16  4)
3333-C( 22 16  4)3334-C( 23 16  4)3335-C( 24 16  4)3336-C( 25 16  4)
3337-C( 26 16  4)3338-C( 27 16  4)3339-C( 28 16  4)3340-C( 29 16  4)
3341-C( 30 16  4)3342-C( 31 16  4)3343-C( 32 16  4)3344-C( 33 16  4)
3345-C( 34 16  4)3346-C( 35 16  4)3347-C( 36 16  4)3348-C( 37 16  4)
3349-C( 38 16  4)3350-C( 39 16  4)3351-C( 40 16  4)3352-C( 41 16  4)
3353-C( 42 16  4)3354-C( 43 16  4)3355-C( 44 16  4)3356-C( 45 16  4)
3357-C( 46 16  4)3358-C( 47 16  4)3359-C( 48 16  4)3360-C( 21 17  4)
3361-C( 22 17  4)3362-C( 23 17  4)3363-C( 24 17  4)3364-C( 25 17  4)
3365-C( 26 17  4)3366-C( 27 17  4)3367-C( 28 17  4)3368-C( 29 17  4)
3369-C( 30 17  4)3370-C( 31 17  4)3371-C( 32 17  4)3372-C( 33 17  4)
3373-C( 34 17  4)3374-C( 35 17  4)3375-C( 36 17  4)3376-C( 37 17  4)
3377-C( 38 17  4)3378-C( 39 17  4)3379-C( 40 17  4)3380-C( 41 17  4)
3381-C( 42 17  4)3382-C( 43 17  4)3383-C( 44 17  4)3384-C( 45 17  4)
3385-C( 46 17  4)3386-C( 47 17  4)3387-C( 22 18  4)3388-C( 23 18  4)
3389-C( 24 18  4)3390-C( 25 18  4)3391-C( 26 18  4)3392-C( 27 18  4)
3393-C( 28 18  4)3394-C( 29 18  4)3395-C( 30 18  4)3396-C( 31 18  4)
3397-C( 32 18  4)3398-C( 33 18  4)3399-C( 34 18  4)3400-C( 35 18  4)
3401-C( 36 18  4)3402-C( 37 18  4)3403-C( 38 18  4)3404-C( 39 18  4)
3405-C( 40 18  4)3406-C( 41 18  4)3407-C( 42 18  4)3408-C( 43 18  4)
3409-C( 44 18  4)3410-C( 45 18  4)3411-C( 46 18  4)3412-C( 23 19  4)
3413-C( 24 19  4)3414-C( 25 19  4)3415-C( 26 19  4)3416-C( 27 19  4)
3417-C( 28 19  4)3418-C( 29 19  4)3419-C( 30 19  4)3420-C( 31 19  4)
3421-C( 32 19  4)3422-C( 33 19  4)3423-C( 34 19  4)3424-C( 35 19  4)
3425-C( 36 19  4)3426-C( 37 19  4)3427-C( 38 19  4)3428-C( 39 19  4)
3429-C( 40 19  4)3430-C( 41 19  4)3431-C( 42 19  4)3432-C( 43 19  4)
3433-C( 44 19  4)3434-C( 45 19  4)3435-C( 24 20  4)3436-C( 25 20  4)
3437-C( 26 20  4)3438-C( 27 20  4)3439-C( 28 20  4)3440-C( 29 20  4)
3441-C( 30 20  4)3442-C( 31 20  4)3443-C( 32 20  4)3444-C( 33 20  4)
3445-C( 34 20  4)3446-C( 35 20  4)3447-C( 36 20  4)3448-C( 37 20  4)
3449-C( 38 20  4)3450-C( 39 20  4)3451-C( 40 20  4)3452-C( 41 20  4)
3453-C( 42 20  4)3454-C( 43 20  4)3455-C( 44 20  4)3456-C( 25 21  4)
3457-C( 26 21  4)3458-C( 27 21  4)3459-C( 28 21  4)3460-C( 29 21  4)
3461-C( 30 21  4)3462-C( 31 21  4)3463-C( 32 21  4)3464-C( 33 21  4)
3465-C( 34 21  4)3466-C( 35 21  4)3467-C( 36 21  4)3468-C( 37 21  4)
3469-C( 38 21  4)3470-C( 39 21  4)3471-C( 40 21  4)3472-C( 41 21  4)
3473-C( 42 21  4)3474-C( 43 21  4)3475-C( 26 22  4)3476-C( 27 22  4)
3477-C( 28 22  4)3478-C( 29 22  4)3479-C( 30 22  4)3480-C( 31 22  4)
3481-C( 32 22  4)3482-C( 33 22  4)3483-C( 34 22  4)3484-C( 35 22  4)
3485-C( 36 22  4)3486-C( 37 22  4)3487-C( 38 22  4)3488-C( 39 22  4)
3489-C( 40 22  4)3490-C( 41 22  4)3491-C( 42 22  4)3492-C( 27 23  4)
3493-C( 28 23  4)3494-C( 29 23  4)3495-C( 30 23  4)3496-C( 31 23  4)
3497-C( 32 23  4)3498-C( 33 23  4)3499-C( 34 23  4)3500-C( 35 23  4)
3501-C( 36 23  4)3502-C( 37 23  4)3503-C( 38 23  4)3504-C( 39 23  4)
3505-C( 40 23  4)3506-C( 41 23  4)3507-C( 28 24  4)3508-C( 29 24  4)
3509-C( 30 24  4)3510-C( 31 24  4)3511-C( 32 24  4)3512-C( 33 24  4)
3513-C( 34 24  4)3514-C( 35 24  4)3515-C( 36 24  4)3516-C( 37 24  4)
3517-C( 38 24  4)3518-C( 39 24  4)3519-C( 40 24  4)3520-C( 29 25  4)
3521-C( 30 25  4)3522-C( 31 25  4)3523-C( 32 25  4)3524-C( 33 25  4)
3525-C( 34 25  4)3526-C( 35 25  4)3527-C( 36 25  4)3528-C( 37 25  4)
3529-C( 38 25  4)3530-C( 39 25  4)3531-C( 30 26  4)3532-C( 31 26  4)
3533-C( 32 26  4)3534-C( 33 26  4)3535-C( 34 26  4)3536-C( 35 26  4)
3537-C( 36 26  4)3538-C( 37 26  4)3539-C( 38 26  4)3540-C( 31 27  4)
3541-C( 32 27  4)3542-C( 33 27  4)3543-C( 34 27  4)3544-C( 35 27  4)
3545-C( 36 27  4)3546-C( 37 27  4)3547-C( 32 28  4)3548-C( 33 28  4)
3549-C( 34 28  4)3550-C( 35 28  4)3551-C( 36 28  4)3552-C( 33 29  4)
3553-C( 34 29  4)3554-C( 35 29  4)3555-C( 34 30  4)3556-C( 15 10  5)
3557-C( 16 10  5)3558-C( 17 10  5)3559-C( 18 10  5)3560-C( 19 10  5)
3561-C( 20 10  5)3562-C( 21 10  5)3563-C( 22 10  5)3564-C( 23 10  5)
3565-C( 24 10  5)3566-C( 25 10  5)3567-C( 26 10  5)3568-C( 27 10  5)
3569-C( 28 10  5)3570-C( 29 10  5)3571-C( 30 10  5)3572-C( 31 10  5)
3573-C( 32 10  5)3574-C( 33 10  5)3575-C( 34 10  5)3576-C( 35 10  5)
3577-C( 16 11  5)3578-C( 17 11  5)3579-C( 18 11  5)3580-C( 19 11  5)
3581-C( 20 11  5)3582-C( 21 11  5)3583-C( 22 11  5)3584-C( 23 11  5)
3585-C( 24 11  5)3586-C( 25 11  5)3587-C( 26 11  5)3588-C( 27 11  5)
3589-C( 28 11  5)3590-C( 29 11  5)3591-C( 30 11  5)3592-C( 31 11  5)
3593-C( 32 11  5)3594-C( 33 11  5)3595-C( 34 11  5)3596-C( 35 11  5)
3597-C( 36 11  5)3598-C( 37 11  5)3599-C( 38 11  5)3600-C( 39 11  5)
3601-C( 40 11  5)3602-C( 41 11  5)3603-C( 42 11  5)3604-C( 43 11  5)
3605-C( 44 11  5)3606-C( 45 11  5)3607-C( 46 11  5)3608-C( 47 11  5)
3609-C( 48 11  5)3610-C( 49 11  5)3611-C( 50 11  5)3612-C( 51 11  5)
3613-C( 52 11  5)3614-C( 53 11  5)3615-C( 54 11  5)3616-C( 17 12  5)
3617-C( 18 12  5)3618-C( 19 12  5)3619-C( 20 12  5)3620-C( 21 12  5)
3621-C( 22 12  5)3622-C( 23 12  5)3623-C( 24 12  5)3624-C( 25 12  5)
3625-C( 26 12  5)3626-C( 27 12  5)3627-C( 28 12  5)3628-C( 29 12  5)
3629-C( 30 12  5)3630-C( 31 12  5)3631-C( 32 12  5)3632-C( 33 12  5)
3633-C( 34 12  5)3634-C( 35 12  5)3635-C( 36 12  5)3636-C( 37 12  5)
3637-C( 38 12  5)3638-C( 39 12  5)3639-C( 40 12  5)3640-C( 41 12  5)
3641-C( 42 12  5)3642-C( 43 12  5)3643-C( 44 12  5)3644-C( 45 12  5)
3645-C( 46 12  5)3646-C( 47 12  5)3647-C( 48 12  5)3648-C( 49 12  5)
3649-C( 50 12  5)3650-C( 51 12  5)3651-C( 52 12  5)3652-C( 53 12  5)
3653-C( 18 13  5)3654-C( 19 13  5)3655-C( 20 13  5)3656-C( 21 13  5)
3657-C( 22 13  5)3658-C( 23 13  5)3659-C( 24 13  5)3660-C( 25 13  5)
3661-C( 26 13  5)3662-C( 27 13  5)3663-C( 28 13  5)3664-C( 29 13  5)
3665-C( 30 13  5)3666-C( 31 13  5)3667-C( 32 13  5)3668-C( 33 13  5)
3669-C( 34 13  5)3670-C( 35 13  5)3671-C( 36 13  5)3672-C( 37 13  5)
3673-C( 38 13  5)3674-C( 39 13  5)3675-C( 40 13  5)3676-C( 41 13  5)
3677-C( 42 13  5)3678-C( 43 13  5)3679-C( 44 13  5)3680-C( 45 13  5)
3681-C( 46 13  5)3682-C( 47 13  5)3683-C( 48 13  5)3684-C( 49 13  5)
3685-C( 50 13  5)3686-C( 51 13  5)3687-C( 52 13  5)3688-C( 19 14  5)
3689-C( 20 14  5)3690-C( 21 14  5)3691-C( 22 14  5)3692-C( 23 14  5)
3693-C( 24 14  5)3694-C( 25 14  5)3695-C( 26 14  5)3696-C( 27 14  5)
3697-C( 28 14  5)3698-C( 29 14  5)3699-C( 30 14  5)3700-C( 31 14  5)
3701-C( 32 14  5)3702-C( 33 14  5)3703-C( 34 14  5)3704-C( 35 14  5)
3705-C( 36 14  5)3706-C( 37 14  5)3707-C( 38 14  5)3708-C( 39 14  5)
3709-C( 40 14  5)3710-C( 41 14  5)3711-C( 42 14  5)3712-C( 43 14  5)
3713-C( 44 14  5)3714-C( 45 14  5)3715-C( 46 14  5)3716-C( 47 14  5)
3717-C( 48 14  5)3718-C( 49 14  5)3719-C( 50 14  5)3720-C( 51 14  5)
3721-C( 20 15  5)3722-C( 21 15  5)3723-C( 22 15  5)3724-C( 23 15  5)
3725-C( 24 15  5)3726-C( 25 15  5)3727-C( 26 15  5)3728-C( 27 15  5)
3729-C( 28 15  5)3730-C( 29 15  5)3731-C( 30 15  5)3732-C( 31 15  5)
3733-C( 32 15  5)3734-C( 33 15  5)3735-C( 34 15  5)3736-C( 35 15  5)
3737-C( 36 15  5)3738-C( 37 15  5)3739-C( 38 15  5)3740-C( 39 15  5)
3741-C( 40 15  5)3742-C( 41 15  5)3743-C( 42 15  5)3744-C( 43 15  5)
3745-C( 44 15  5)3746-C( 45 15  5)3747-C( 46 15  5)3748-C( 47 15  5)
3749-C( 48 15  5)3750-C( 49 15  5)3751-C( 50 15  5)3752-C( 21 16  5)
3753-C( 22 16  5)3754-C( 23 16  5)3755-C( 24 16  5)3756-C( 25 16  5)
3757-C( 26 16  5)3758-C( 27 16  5)3759-C( 28 16  5)3760-C( 29 16  5)
3761-C( 30 16  5)3762-C( 31 16  5)3763-C( 32 16  5)3764-C( 33 16  5)
3765-C( 34 16  5)3766-C( 35 16  5)3767-C( 36 16  5)3768-C( 37 16  5)
3769-C( 38 16  5)3770-C( 39 16  5)3771-C( 40 16  5)3772-C( 41 16  5)
3773-C( 42 16  5)3774-C( 43 16  5)3775-C( 44 16  5)3776-C( 45 16  5)
3777-C( 46 16  5)3778-C( 47 16  5)3779-C( 48 16  5)3780-C( 49 16  5)
3781-C( 22 17  5)3782-C( 23 17  5)3783-C( 24 17  5)3784-C( 25 17  5)
3785-C( 26 17  5)3786-C( 27 17  5)3787-C( 28 17  5)3788-C( 29 17  5)
3789-C( 30 17  5)3790-C( 31 17  5)3791-C( 32 17  5)3792-C( 33 17  5)
3793-C( 34 17  5)3794-C( 35 17  5)3795-C( 36 17  5)3796-C( 37 17  5)
3797-C( 38 17  5)3798-C( 39 17  5)3799-C( 40 17  5)3800-C( 41 17  5)
3801-C( 42 17  5)3802-C( 43 17  5)3803-C( 44 17  5)3804-C( 45 17  5)
3805-C( 46 17  5)3806-C( 47 17  5)3807-C( 48 17  5)3808-C( 23 18  5)
3809-C( 24 18  5)3810-C( 25 18  5)3811-C( 26 18  5)3812-C( 27 18  5)
3813-C( 28 18  5)3814-C( 29 18  5)3815-C( 30 18  5)3816-C( 31 18  5)
3817-C( 32 18  5)3818-C( 33 18  5)3819-C( 34 18  5)3820-C( 35 18  5)
3821-C( 36 18  5)3822-C( 37 18  5)3823-C( 38 18  5)3824-C( 39 18  5)
3825-C( 40 18  5)3826-C( 41 18  5)3827-C( 42 18  5)3828-C( 43 18  5)
3829-C( 44 18  5)3830-C( 45 18  5)3831-C( 46 18  5)3832-C( 47 18  5)
3833-C( 24 19  5)3834-C( 25 19  5)3835-C( 26 19  5)3836-C( 27 19  5)
3837-C( 28 19  5)3838-C( 29 19  5)3839-C( 30 19  5)3840-C( 31 19  5)
3841-C( 32 19  5)3842-C( 33 19  5)3843-C( 34 19  5)3844-C( 35 19  5)
3845-C( 36 19  5)3846-C( 37 19  5)3847-C( 38 19  5)3848-C( 39 19  5)
3849-C( 40 19  5)3850-C( 41 19  5)3851-C( 42 19  5)3852-C( 43 19  5)
3853-C( 44 19  5)3854-C( 45 19  5)3855-C( 46 19  5)3856-C( 25 20  5)
3857-C( 26 20  5)3858-C( 27 20  5)3859-C( 28 20  5)3860-C( 29 20  5)
3861-C( 30 20  5)3862-C( 31 20  5)3863-C( 32 20  5)3864-C( 33 20  5)
3865-C( 34 20  5)3866-C( 35 20  5)3867-C( 36 20  5)3868-C( 37 20  5)
3869-C( 38 20  5)3870-C( 39 20  5)3871-C( 40 20  5)3872-C( 41 20  5)
3873-C( 42 20  5)3874-C( 43 20  5)3875-C( 44 20  5)3876-C( 45 20  5)
3877-C( 26 21  5)3878-C( 27 21  5)3879-C( 28 21  5)3880-C( 29 21  5)
3881-C( 30 21  5)3882-C( 31 21  5)3883-C( 32 21  5)3884-C( 33 21  5)
3885-C( 34 21  5)3886-C( 35 21  5)3887-C( 36 21  5)3888-C( 37 21  5)
3889-C( 38 21  5)3890-C( 39 21  5)3891-C( 40 21  5)3892-C( 41 21  5)
3893-C( 42 21  5)3894-C( 43 21  5)3895-C( 44 21  5)3896-C( 27 22  5)
3897-C( 28 22  5)3898-C( 29 22  5)3899-C( 30 22  5)3900-C( 31 22  5)
3901-C( 32 22  5)3902-C( 33 22  5)3903-C( 34 22  5)3904-C( 35 22  5)
3905-C( 36 22  5)3906-C( 37 22  5)3907-C( 38 22  5)3908-C( 39 22  5)
3909-C( 40 22  5)3910-C( 41 22  5)3911-C( 42 22  5)3912-C( 43 22  5)
3913-C( 28 23  5)3914-C( 29 23  5)3915-C( 30 23  5)3916-C( 31 23  5)
3917-C( 32 23  5)3918-C( 33 23  5)3919-C( 34 23  5)3920-C( 35 23  5)
3921-C( 36 23  5)3922-C( 37 23  5)3923-C( 38 23  5)3924-C( 39 23  5)
3925-C( 40 23  5)3926-C( 41 23  5)3927-C( 42 23  5)3928-C( 29 24  5)
3929-C( 30 24  5)3930-C( 31 24  5)3931-C( 32 24  5)3932-C( 33 24  5)
3933-C( 34 24  5)3934-C( 35 24  5)3935-C( 36 24  5)3936-C( 37 24  5)
3937-C( 38 24  5)3938-C( 39 24  5)3939-C( 40 24  5)3940-C( 41 24  5)
3941-C( 30 25  5)3942-C( 31 25  5)3943-C( 32 25  5)3944-C( 33 25  5)
3945-C( 34 25  5)3946-C( 35 25  5)3947-C( 36 25  5)3948-C( 37 25  5)
3949-C( 38 25  5)3950-C( 39 25  5)3951-C( 40 25  5)3952-C( 31 26  5)
3953-C( 32 26  5)3954-C( 33 26  5)3955-C( 34 26  5)3956-C( 35 26  5)
3957-C( 36 26  5)3958-C( 37 26  5)3959-C( 38 26  5)3960-C( 39 26  5)
3961-C( 32 27  5)3962-C( 33 27  5)3963-C( 34 27  5)3964-C( 35 27  5)
3965-C( 36 27  5)3966-C( 37 27  5)3967-C( 38 27  5)3968-C( 33 28  5)
3969-C( 34 28  5)3970-C( 35 28  5)3971-C( 36 28  5)3972-C( 37 28  5)
3973-C( 34 29  5)3974-C( 35 29  5)3975-C( 36 29  5)3976-C( 35 30  5)
3977-C( 18 12  6)3978-C( 19 12  6)3979-C( 20 12  6)3980-C( 21 12  6)
3981-C( 22 12  6)3982-C( 23 12  6)3983-C( 24 12  6)3984-C( 25 12  6)
3985-C( 26 12  6)3986-C( 27 12  6)3987-C( 28 12  6)3988-C( 29 12  6)
3989-C( 30 12  6)3990-C( 31 12  6)3991-C( 32 12  6)3992-C( 33 12  6)
3993-C( 34 12  6)3994-C( 35 12  6)3995-C( 36 12  6)3996-C( 19 13  6)
3997-C( 20 13  6)3998-C( 21 13  6)3999-C( 22 13  6)4000-C( 23 13  6)
4001-C( 24 13  6)4002-C( 25 13  6)4003-C( 26 13  6)4004-C( 27 13  6)
4005-C( 28 13  6)4006-C( 29 13  6)4007-C( 30 13  6)4008-C( 31 13  6)
4009-C( 32 13  6)4010-C( 33 13  6)4011-C( 34 13  6)4012-C( 35 13  6)
4013-C( 36 13  6)4014-C( 37 13  6)4015-C( 38 13  6)4016-C( 39 13  6)
4017-C( 40 13  6)4018-C( 41 13  6)4019-C( 42 13  6)4020-C( 43 13  6)
4021-C( 44 13  6)4022-C( 45 13  6)4023-C( 46 13  6)4024-C( 47 13  6)
4025-C( 48 13  6)4026-C( 49 13  6)4027-C( 50 13  6)4028-C( 51 13  6)
4029-C( 52 13  6)4030-C( 53 13  6)4031-C( 20 14  6)4032-C( 21 14  6)
4033-C( 22 14  6)4034-C( 23 14  6)4035-C( 24 14  6)4036-C( 25 14  6)
4037-C( 26 14  6)4038-C( 27 14  6)4039-C( 28 14  6)4040-C( 29 14  6)
4041-C( 30 14  6)4042-C( 31 14  6)4043-C( 32 14  6)4044-C( 33 14  6)
4045-C( 34 14  6)4046-C( 35 14  6)4047-C( 36 14  6)4048-C( 37 14  6)
4049-C( 38 14  6)4050-C( 39 14  6)4051-C( 40 14  6)4052-C( 41 14  6)
4053-C( 42 14  6)4054-C( 43 14  6)4055-C( 44 14  6)4056-C( 45 14  6)
4057-C( 46 14  6)4058-C( 47 14  6)4059-C( 48 14  6)4060-C( 49 14  6)
4061-C( 50 14  6)4062-C( 51 14  6)4063-C( 52 14  6)4064-C( 21 15  6)
4065-C( 22 15  6)4066-C( 23 15  6)4067-C( 24 15  6)4068-C( 25 15  6)
4069-C( 26 15  6)4070-C( 27 15  6)4071-C( 28 15  6)4072-C( 29 15  6)
4073-C( 30 15  6)4074-C( 31 15  6)4075-C( 32 15  6)4076-C( 33 15  6)
4077-C( 34 15  6)4078-C( 35 15  6)4079-C( 36 15  6)4080-C( 37 15  6)
4081-C( 38 15  6)4082-C( 39 15  6)4083-C( 40 15  6)4084-C( 41 15  6)
4085-C( 42 15  6)4086-C( 43 15  6)4087-C( 44 15  6)4088-C( 45 15  6)
4089-C( 46 15  6)4090-C( 47 15  6)4091-C( 48 15  6)4092-C( 49 15  6)
4093-C( 50 15  6)4094-C( 51 15  6)4095-C( 22 16  6)4096-C( 23 16  6)
4097-C( 24 16  6)4098-C( 25 16  6)4099-C( 26 16  6)4100-C( 27 16  6)
4101-C( 28 16  6)4102-C( 29 16  6)4103-C( 30 16  6)4104-C( 31 16  6)
4105-C( 32 16  6)4106-C( 33 16  6)4107-C( 34 16  6)4108-C( 35 16  6)
4109-C( 36 16  6)4110-C( 37 16  6)4111-C( 38 16  6)4112-C( 39 16  6)
4113-C( 40 16  6)4114-C( 41 16  6)4115-C( 42 16  6)4116-C( 43 16  6)
4117-C( 44 16  6)4118-C( 45 16  6)4119-C( 46 16  6)4120-C( 47 16  6)
4121-C( 48 16  6)4122-C( 49 16  6)4123-C( 50 16  6)4124-C( 23 17  6)
4125-C( 24 17  6)4126-C( 25 17  6)4127-C( 26 17  6)4128-C( 27 17  6)
4129-C( 28 17  6)4130-C( 29 17  6)4131-C( 30 17  6)4132-C( 31 17  6)
4133-C( 32 17  6)4134-C( 33 17  6)4135-C( 34 17  6)4136-C( 35 17  6)
4137-C( 36 17  6)4138-C( 37 17  6)4139-C( 38 17  6)4140-C( 39 17  6)
4141-C( 40 17  6)4142-C( 41 17  6)4143-C( 42 17  6)4144-C( 43 17  6)
4145-C( 44 17  6)4146-C( 45 17  6)4147-C( 46 17  6)4148-C( 47 17  6)
4149-C( 48 17  6)4150-C( 49 17  6)4151-C( 24 18  6)4152-C( 25 18  6)
4153-C( 26 18  6)4154-C( 27 18  6)4155-C( 28 18  6)4156-C( 29 18  6)
4157-C( 30 18  6)4158-C( 31 18  6)4159-C( 32 18  6)4160-C( 33 18  6)
[...]
4569-C( 34 26  7)4570-C( 35 26  7)4571-C( 36 26  7)4572-C( 37 26  7)
4573-C( 38 26  7)4574-C( 39 26  7)4575-C( 40 26  7)4576-C( 41 26  7)
4577-C( 34 27  7)4578-C( 35 27  7)4579-C( 36 27  7)4580-C( 37 27  7)
4581-C( 38 27  7)4582-C( 39 27  7)4583-C( 40 27  7)4584-C( 35 28  7)
4585-C( 36 28  7)4586-C( 37 28  7)4587-C( 38 28  7)4588-C( 39 28  7)
4589-C( 36 29  7)4590-C( 37 29  7)4591-C( 38 29  7)4592-C( 37 30  7)
4593-C( 24 16  8)4594-C( 25 16  8)4595-C( 26 16  8)4596-C( 27 16  8)
4597-C( 28 16  8)4598-C( 29 16  8)4599-C( 30 16  8)4600-C( 31 16  8)
4601-C( 32 16  8)4602-C( 33 16  8)4603-C( 34 16  8)4604-C( 35 16  8)
4605-C( 36 16  8)4606-C( 37 16  8)4607-C( 38 16  8)4608-C( 25 17  8)
4609-C( 26 17  8)4610-C( 27 17  8)4611-C( 28 17  8)4612-C( 29 17  8)
4613-C( 30 17  8)4614-C( 31 17  8)4615-C( 32 17  8)4616-C( 33 17  8)
4617-C( 34 17  8)4618-C( 35 17  8)4619-C( 36 17  8)4620-C( 37 17  8)
4621-C( 38 17  8)4622-C( 39 17  8)4623-C( 40 17  8)4624-C( 41 17  8)
4625-C( 42 17  8)4626-C( 43 17  8)4627-C( 44 17  8)4628-C( 45 17  8)
4629-C( 46 17  8)4630-C( 47 17  8)4631-C( 48 17  8)4632-C( 49 17  8)
4633-C( 50 17  8)4634-C( 51 17  8)4635-C( 26 18  8)4636-C( 27 18  8)
4637-C( 28 18  8)4638-C( 29 18  8)4639-C( 30 18  8)4640-C( 31 18  8)
4641-C( 32 18  8)4642-C( 33 18  8)4643-C( 34 18  8)4644-C( 35 18  8)
4645-C( 36 18  8)4646-C( 37 18  8)4647-C( 38 18  8)4648-C( 39 18  8)
4649-C( 40 18  8)4650-C( 41 18  8)4651-C( 42 18  8)4652-C( 43 18  8)
4653-C( 44 18  8)4654-C( 45 18  8)4655-C( 46 18  8)4656-C( 47 18  8)
4657-C( 48 18  8)4658-C( 49 18  8)4659-C( 50 18  8)4660-C( 27 19  8)
4661-C( 28 19  8)4662-C( 29 19  8)4663-C( 30 19  8)4664-C( 31 19  8)
4665-C( 32 19  8)4666-C( 33 19  8)4667-C( 34 19  8)4668-C( 35 19  8)
4669-C( 36 19  8)4670-C( 37 19  8)4671-C( 38 19  8)4672-C( 39 19  8)
4673-C( 40 19  8)4674-C( 41 19  8)4675-C( 42 19  8)4676-C( 43 19  8)
4677-C( 44 19  8)4678-C( 45 19  8)4679-C( 46 19  8)4680-C( 47 19  8)
4681-C( 48 19  8)4682-C( 49 19  8)4683-C( 28 20  8)4684-C( 29 20  8)
4685-C( 30 20  8)4686-C( 31 20  8)4687-C( 32 20  8)4688-C( 33 20  8)
4689-C( 34 20  8)4690-C( 35 20  8)4691-C( 36 20  8)4692-C( 37 20  8)
4693-C( 38 20  8)4694-C( 39 20  8)4695-C( 40 20  8)4696-C( 41 20  8)
4697-C( 42 20  8)4698-C( 43 20  8)4699-C( 44 20  8)4700-C( 45 20  8)
4701-C( 46 20  8)4702-C( 47 20  8)4703-C( 48 20  8)4704-C( 29 21  8)
4705-C( 30 21  8)4706-C( 31 21  8)4707-C( 32 21  8)4708-C( 33 21  8)
4709-C( 34 21  8)4710-C( 35 21  8)4711-C( 36 21  8)4712-C( 37 21  8)
4713-C( 38 21  8)4714-C( 39 21  8)4715-C( 40 21  8)4716-C( 41 21  8)
4717-C( 42 21  8)4718-C( 43 21  8)4719-C( 44 21  8)4720-C( 45 21  8)
4721-C( 46 21  8)4722-C( 47 21  8)4723-C( 30 22  8)4724-C( 31 22  8)
4725-C( 32 22  8)4726-C( 33 22  8)4727-C( 34 22  8)4728-C( 35 22  8)
4729-C( 36 22  8)4730-C( 37 22  8)4731-C( 38 22  8)4732-C( 39 22  8)
4733-C( 40 22  8)4734-C( 41 22  8)4735-C( 42 22  8)4736-C( 43 22  8)
4737-C( 44 22  8)4738-C( 45 22  8)4739-C( 46 22  8)4740-C( 31 23  8)
4741-C( 32 23  8)4742-C( 33 23  8)4743-C( 34 23  8)4744-C( 35 23  8)
4745-C( 36 23  8)4746-C( 37 23  8)4747-C( 38 23  8)4748-C( 39 23  8)
4749-C( 40 23  8)4750-C( 41 23  8)4751-C( 42 23  8)4752-C( 43 23  8)
4753-C( 44 23  8)4754-C( 45 23  8)4755-C( 32 24  8)4756-C( 33 24  8)
4757-C( 34 24  8)4758-C( 35 24  8)4759-C( 36 24  8)4760-C( 37 24  8)
4761-C( 38 24  8)4762-C( 39 24  8)4763-C( 40 24  8)4764-C( 41 24  8)
4765-C( 42 24  8)4766-C( 43 24  8)4767-C( 44 24  8)4768-C( 33 25  8)
4769-C( 34 25  8)4770-C( 35 25  8)4771-C( 36 25  8)4772-C( 37 25  8)
4773-C( 38 25  8)4774-C( 39 25  8)4775-C( 40 25  8)4776-C( 41 25  8)
4777-C( 42 25  8)4778-C( 43 25  8)4779-C( 34 26  8)4780-C( 35 26  8)
4781-C( 36 26  8)4782-C( 37 26  8)4783-C( 38 26  8)4784-C( 39 26  8)
4785-C( 40 26  8)4786-C( 41 26  8)4787-C( 42 26  8)4788-C( 35 27  8)
4789-C( 36 27  8)4790-C( 37 27  8)4791-C( 38 27  8)4792-C( 39 27  8)
4793-C( 40 27  8)4794-C( 41 27  8)4795-C( 36 28  8)4796-C( 37 28  8)
4797-C( 38 28  8)4798-C( 39 28  8)4799-C( 40 28  8)4800-C( 37 29  8)
4801-C( 38 29  8)4802-C( 39 29  8)4803-C( 38 30  8)4804-C( 27 18  9)
4805-C( 28 18  9)4806-C( 29 18  9)4807-C( 30 18  9)4808-C( 31 18  9)
4809-C( 32 18  9)4810-C( 33 18  9)4811-C( 34 18  9)4812-C( 35 18  9)
4813-C( 36 18  9)4814-C( 37 18  9)4815-C( 38 18  9)4816-C( 39 18  9)
4817-C( 28 19  9)4818-C( 29 19  9)4819-C( 30 19  9)4820-C( 31 19  9)
4821-C( 32 19  9)4822-C( 33 19  9)4823-C( 34 19  9)4824-C( 35 19  9)
4825-C( 36 19  9)4826-C( 37 19  9)4827-C( 38 19  9)4828-C( 39 19  9)
4829-C( 40 19  9)4830-C( 41 19  9)4831-C( 42 19  9)4832-C( 43 19  9)
4833-C( 44 19  9)4834-C( 45 19  9)4835-C( 46 19  9)4836-C( 47 19  9)
4837-C( 48 19  9)4838-C( 49 19  9)4839-C( 50 19  9)4840-C( 29 20  9)
4841-C( 30 20  9)4842-C( 31 20  9)4843-C( 32 20  9)4844-C( 33 20  9)
4845-C( 34 20  9)4846-C( 35 20  9)4847-C( 36 20  9)4848-C( 37 20  9)
4849-C( 38 20  9)4850-C( 39 20  9)4851-C( 40 20  9)4852-C( 41 20  9)
4853-C( 42 20  9)4854-C( 43 20  9)4855-C( 44 20  9)4856-C( 45 20  9)
4857-C( 46 20  9)4858-C( 47 20  9)4859-C( 48 20  9)4860-C( 49 20  9)
4861-C( 30 21  9)4862-C( 31 21  9)4863-C( 32 21  9)4864-C( 33 21  9)
4865-C( 34 21  9)4866-C( 35 21  9)4867-C( 36 21  9)4868-C( 37 21  9)
4869-C( 38 21  9)4870-C( 39 21  9)4871-C( 40 21  9)4872-C( 41 21  9)
4873-C( 42 21  9)4874-C( 43 21  9)4875-C( 44 21  9)4876-C( 45 21  9)
4877-C( 46 21  9)4878-C( 47 21  9)4879-C( 48 21  9)4880-C( 31 22  9)
4881-C( 32 22  9)4882-C( 33 22  9)4883-C( 34 22  9)4884-C( 35 22  9)
4885-C( 36 22  9)4886-C( 37 22  9)4887-C( 38 22  9)4888-C( 39 22  9)
4889-C( 40 22  9)4890-C( 41 22  9)4891-C( 42 22  9)4892-C( 43 22  9)
4893-C( 44 22  9)4894-C( 45 22  9)4895-C( 46 22  9)4896-C( 47 22  9)
4897-C( 32 23  9)4898-C( 33 23  9)4899-C( 34 23  9)4900-C( 35 23  9)
4901-C( 36 23  9)4902-C( 37 23  9)4903-C( 38 23  9)4904-C( 39 23  9)
4905-C( 40 23  9)4906-C( 41 23  9)4907-C( 42 23  9)4908-C( 43 23  9)
4909-C( 44 23  9)4910-C( 45 23  9)4911-C( 46 23  9)4912-C( 33 24  9)
4913-C( 34 24  9)4914-C( 35 24  9)4915-C( 36 24  9)4916-C( 37 24  9)
4917-C( 38 24  9)4918-C( 39 24  9)4919-C( 40 24  9)4920-C( 41 24  9)
4921-C( 42 24  9)4922-C( 43 24  9)4923-C( 44 24  9)4924-C( 45 24  9)
4925-C( 34 25  9)4926-C( 35 25  9)4927-C( 36 25  9)4928-C( 37 25  9)
4929-C( 38 25  9)4930-C( 39 25  9)4931-C( 40 25  9)4932-C( 41 25  9)
4933-C( 42 25  9)4934-C( 43 25  9)4935-C( 44 25  9)4936-C( 35 26  9)
4937-C( 36 26  9)4938-C( 37 26  9)4939-C( 38 26  9)4940-C( 39 26  9)
4941-C( 40 26  9)4942-C( 41 26  9)4943-C( 42 26  9)4944-C( 43 26  9)
4945-C( 36 27  9)4946-C( 37 27  9)4947-C( 38 27  9)4948-C( 39 27  9)
4949-C( 40 27  9)4950-C( 41 27  9)4951-C( 42 27  9)4952-C( 37 28  9)
4953-C( 38 28  9)4954-C( 39 28  9)4955-C( 40 28  9)4956-C( 41 28  9)
4957-C( 38 29  9)4958-C( 39 29  9)4959-C( 40 29  9)4960-C( 39 30  9)
4961-C( 30 20 10)4962-C( 31 20 10)4963-C( 32 20 10)4964-C( 33 20 10)
4965-C( 34 20 10)4966-C( 35 20 10)4967-C( 36 20 10)4968-C( 37 20 10)
4969-C( 38 20 10)4970-C( 39 20 10)4971-C( 40 20 10)4972-C( 31 21 10)
4973-C( 32 21 10)4974-C( 33 21 10)4975-C( 34 21 10)4976-C( 35 21 10)
4977-C( 36 21 10)4978-C( 37 21 10)4979-C( 38 21 10)4980-C( 39 21 10)
4981-C( 40 21 10)4982-C( 41 21 10)4983-C( 42 21 10)4984-C( 43 21 10)
4985-C( 44 21 10)4986-C( 45 21 10)4987-C( 46 21 10)4988-C( 47 21 10)
4989-C( 48 21 10)4990-C( 49 21 10)4991-C( 32 22 10)4992-C( 33 22 10)
4993-C( 34 22 10)4994-C( 35 22 10)4995-C( 36 22 10)4996-C( 37 22 10)
4997-C( 38 22 10)4998-C( 39 22 10)4999-C( 40 22 10)5000-C( 41 22 10)
5001-C( 42 22 10)5002-C( 43 22 10)5003-C( 44 22 10)5004-C( 45 22 10)
5005-C( 46 22 10)5006-C( 47 22 10)5007-C( 48 22 10)5008-C( 33 23 10)
5009-C( 34 23 10)5010-C( 35 23 10)5011-C( 36 23 10)5012-C( 37 23 10)
5013-C( 38 23 10)5014-C( 39 23 10)5015-C( 40 23 10)5016-C( 41 23 10)
5017-C( 42 23 10)5018-C( 43 23 10)5019-C( 44 23 10)5020-C( 45 23 10)
5021-C( 46 23 10)5022-C( 47 23 10)5023-C( 34 24 10)5024-C( 35 24 10)
5025-C( 36 24 10)5026-C( 37 24 10)5027-C( 38 24 10)5028-C( 39 24 10)
5029-C( 40 24 10)5030-C( 41 24 10)5031-C( 42 24 10)5032-C( 43 24 10)
5033-C( 44 24 10)5034-C( 45 24 10)5035-C( 46 24 10)5036-C( 35 25 10)
5037-C( 36 25 10)5038-C( 37 25 10)5039-C( 38 25 10)5040-C( 39 25 10)
5041-C( 40 25 10)5042-C( 41 25 10)5043-C( 42 25 10)5044-C( 43 25 10)
5045-C( 44 25 10)5046-C( 45 25 10)5047-C( 36 26 10)5048-C( 37 26 10)
5049-C( 38 26 10)5050-C( 39 26 10)5051-C( 40 26 10)5052-C( 41 26 10)
5053-C( 42 26 10)5054-C( 43 26 10)5055-C( 44 26 10)5056-C( 37 27 10)
5057-C( 38 27 10)5058-C( 39 27 10)5059-C( 40 27 10)5060-C( 41 27 10)
5061-C( 42 27 10)5062-C( 43 27 10)5063-C( 38 28 10)5064-C( 39 28 10)
5065-C( 40 28 10)5066-C( 41 28 10)5067-C( 42 28 10)5068-C( 39 29 10)
5069-C( 40 29 10)5070-C( 41 29 10)5071-C( 40 30 10)5072-C( 33 22 11)
5073-C( 34 22 11)5074-C( 35 22 11)5075-C( 36 22 11)5076-C( 37 22 11)
5077-C( 38 22 11)5078-C( 39 22 11)5079-C( 40 22 11)5080-C( 41 22 11)
5081-C( 34 23 11)5082-C( 35 23 11)5083-C( 36 23 11)5084-C( 37 23 11)
5085-C( 38 23 11)5086-C( 39 23 11)5087-C( 40 23 11)5088-C( 41 23 11)
5089-C( 42 23 11)5090-C( 43 23 11)5091-C( 44 23 11)5092-C( 45 23 11)
5093-C( 46 23 11)5094-C( 47 23 11)5095-C( 48 23 11)5096-C( 35 24 11)
5097-C( 36 24 11)5098-C( 37 24 11)5099-C( 38 24 11)5100-C( 39 24 11)
5101-C( 40 24 11)5102-C( 41 24 11)5103-C( 42 24 11)5104-C( 43 24 11)
5105-C( 44 24 11)5106-C( 45 24 11)5107-C( 46 24 11)5108-C( 47 24 11)
5109-C( 36 25 11)5110-C( 37 25 11)5111-C( 38 25 11)5112-C( 39 25 11)
5113-C( 40 25 11)5114-C( 41 25 11)5115-C( 42 25 11)5116-C( 43 25 11)
5117-C( 44 25 11)5118-C( 45 25 11)5119-C( 46 25 11)5120-C( 37 26 11)
5121-C( 38 26 11)5122-C( 39 26 11)5123-C( 40 26 11)5124-C( 41 26 11)
5125-C( 42 26 11)5126-C( 43 26 11)5127-C( 44 26 11)5128-C( 45 26 11)
5129-C( 38 27 11)5130-C( 39 27 11)5131-C( 40 27 11)5132-C( 41 27 11)
5133-C( 42 27 11)5134-C( 43 27 11)5135-C( 44 27 11)5136-C( 39 28 11)
5137-C( 40 28 11)5138-C( 41 28 11)5139-C( 42 28 11)5140-C( 43 28 11)
5141-C( 40 29 11)5142-C( 41 29 11)5143-C( 42 29 11)5144-C( 41 30 11)
5145-C( 36 24 12)5146-C( 37 24 12)5147-C( 38 24 12)5148-C( 39 24 12)
5149-C( 40 24 12)5150-C( 41 24 12)5151-C( 42 24 12)5152-C( 37 25 12)
5153-C( 38 25 12)5154-C( 39 25 12)5155-C( 40 25 12)5156-C( 41 25 12)
5157-C( 42 25 12)5158-C( 43 25 12)5159-C( 44 25 12)5160-C( 45 25 12)
5161-C( 46 25 12)5162-C( 47 25 12)5163-C( 38 26 12)5164-C( 39 26 12)
5165-C( 40 26 12)5166-C( 41 26 12)5167-C( 42 26 12)5168-C( 43 26 12)
5169-C( 44 26 12)5170-C( 45 26 12)5171-C( 46 26 12)5172-C( 39 27 12)
5173-C( 40 27 12)5174-C( 41 27 12)5175-C( 42 27 12)5176-C( 43 27 12)
5177-C( 44 27 12)5178-C( 45 27 12)5179-C( 40 28 12)5180-C( 41 28 12)
5181-C( 42 28 12)5182-C( 43 28 12)5183-C( 44 28 12)5184-C( 41 29 12)
5185-C( 42 29 12)5186-C( 43 29 12)5187-C( 42 30 12)5188-C( 39 26 13)
5189-C( 40 26 13)5190-C( 41 26 13)5191-C( 42 26 13)5192-C( 43 26 13)
5193-C( 40 27 13)5194-C( 41 27 13)5195-C( 42 27 13)5196-C( 43 27 13)
5197-C( 44 27 13)5198-C( 45 27 13)5199-C( 46 27 13)5200-C( 41 28 13)
5201-C( 42 28 13)5202-C( 43 28 13)5203-C( 44 28 13)5204-C( 45 28 13)
5205-C( 42 29 13)5206-C( 43 29 13)5207-C( 44 29 13)5208-C( 43 30 13)
5209-C( 42 28 14)5210-C( 43 28 14)5211-C( 44 28 14)5212-C( 43 29 14)
5213-C( 44 29 14)5214-C( 45 29 14)5215-C( 44 30 14)5216-C( 45 30 15)

 FERMI ENERGY AND DENSITY MATRIX CALCULATION ON COMPUTED EIGENVECTORS
 DENSITY MATRIX AT SCF CYCLE (  5+1)

 INSULATING STATE
 TOP OF VALENCE BANDS -    BAND     45; K    1; EIG -8.4998856E-02 AU
 BOTTOM OF VIRTUAL BANDS - BAND     46; K  931; EIG -6.6320269E-02 AU
 INDIRECT ENERGY BAND GAP:   0.5083 eV
 BOTTOM OF VIRTUAL BANDS - BAND     46; K    1; EIG  1.5559489E-03 AU

 CORE DENSITY MATRIX CALCULATION
 TTTTTTTTTTTTTTTTTTTTTTTTTTTTTT NEWK        TELAPSE       25.13 TCPU       25.06
 *******************************************************************************

           THERMOELECTRIC AND ELECTRONIC TRANSPORT PROPERTIES CALCULATION

 (Physical Constants: CODATA 2014 NIST, arXiv:1507.07956 http://physics.nist.gov/cuu/Constants/index.html)

 *******************************************************************************
  RELAXATION TIME (fs):                 18.0000
  MIN TEMPERATURE VALUE (K):           100.0000
  MAX TEMPERATURE VALUE (K):          1200.0000
  STEP TEMPERATURE VALUE (K):          100.0000
  MIN CHEMICAL POTENTIAL VALUE (eV):    -4.2000
  MAX CHEMICAL POTENTIAL VALUE (eV):     0.2000
  STEP CHEMICAL POTENTIAL VALUE (eV):    0.0100
  MIN TDF VALUE (eV):                   -4.2000
  MAX TDF VALUE (eV):                    0.2000
  STEP TDF VALUE (eV):                   0.0100
  SMEARING FACTOR:                       0.0000
  SMEARING SCHEME:                      GAUSSIAN
  PROPERTIES FOR GIVEN CHEMICAL POTENTIAL ARE CALCULATED
 *******************************************************************************
 TDF CALCULATION IN PROGRESS...
 dimension  ndf is123         82    216000
 TTTTTTTTTTTTTTTTTTTTTTTTTTTTTT SMAT        TELAPSE     1725.90 TCPU     1190.29
 TDF CALCULATION PERFORMED
 TDF CALCULATED ALONG THE XX,XY,YY,XZ,YZ,ZZ DIRECTIONS
 TTTTTTTTTTTTTTTTTTTTTTTTTTTTTT TDF_CALC    TELAPSE     4910.45 TCPU     1638.43

 FERMI LEVEL -2.313


 **********


 ELECTRICAL CONDUCTIVITY DATA WRITTEN ON SIGMA.DAT
 ELECTRICAL CONDUCTIVITY * SEEBECK COEFFICIENT DATA WRITTEN ON SIGMAS.DAT
 SEEBECK COEFFICIENT DATA WRITTEN ON SEEBECK.DAT
 ELECTRICAL THERMAL CONDUCTIVITY DATA WRITTEN ON KAPPA.DAT
 TRANSPORT DISTRIBUTION FUNCTION DATA WRITTEN ON TDF.DAT
 TTTTTTTTTTTTTTTTTTTTTTTTTTTTTT BOLTZTRA    TELAPSE     4911.03 TCPU     1638.97
 ENDPROP   
 TTTTTTTTTTTTTTTTTTTTTTTTTTTTTT END         TELAPSE     4911.03 TCPU     1638.97
 EEEEEEEEEE TERMINATION  DATE 13 01 2022 TIME 12:38:21.6
NODE    0 CPU TIME =      1638.974
NODE    1 CPU TIME =      1584.958
NODE    2 CPU TIME =      1588.943
NODE    3 CPU TIME =      1638.852
NODE    4 CPU TIME =      1643.527
NODE    5 CPU TIME =      1665.358
NODE    6 CPU TIME =      1592.418
NODE    7 CPU TIME =      1667.719
NODE    8 CPU TIME =      1917.696
NODE    9 CPU TIME =      1901.042
NODE   10 CPU TIME =      1920.165
NODE   11 CPU TIME =      1876.927
NODE   12 CPU TIME =      1881.870
NODE   13 CPU TIME =      1883.703
NODE   14 CPU TIME =      1954.536
NODE   15 CPU TIME =      1860.403
    TOTAL CPU TIME =     28217.091
Thu Jan 13 12:38:22 CET 2022
total 45988184
-rw-r--r-- 1 casassa users        178 Jan 13 11:16 INPUT
-rw-r--r-- 1 casassa users     709964 Jan 13 12:38 KAPPA.DAT
-rw-r--r-- 1 casassa users     932232 Jan 13 12:38 POWER.DAT
-rw-r--r-- 1 casassa users     948128 Jan 13 12:38 POWER_C.DAT
-rwxr-xr-x 1 casassa users   49145680 Jan 13 11:16 Pproperties-232191
-rw-r--r-- 1 casassa users     979875 Jan 13 12:38 SEEBECK.DAT
-rw-r--r-- 1 casassa users     710000 Jan 13 12:38 SIGMA.DAT
-rw-r--r-- 1 casassa users     710032 Jan 13 12:38 SIGMAS.DAT
-rw-r--r-- 1 casassa users      56905 Jan 13 12:38 TDF.DAT
-rw-r--r-- 1 casassa users   32209384 Jan 13 11:16 fort.10.pe00
-rw-r--r-- 1 casassa users   32305936 Jan 13 11:16 fort.10.pe01
-rw-r--r-- 1 casassa users   32165592 Jan 13 11:16 fort.10.pe02
-rw-r--r-- 1 casassa users   32310936 Jan 13 11:16 fort.10.pe03
-rw-r--r-- 1 casassa users   32173784 Jan 13 11:16 fort.10.pe04
-rw-r--r-- 1 casassa users   32310936 Jan 13 11:16 fort.10.pe05
-rw-r--r-- 1 casassa users   32173784 Jan 13 11:16 fort.10.pe06
-rw-r--r-- 1 casassa users   32310936 Jan 13 11:16 fort.10.pe07
-rw-r--r-- 1 casassa users     284576 Jan 13 11:16 fort.11.pe00
-rw-r--r-- 1 casassa users     284576 Jan 13 11:16 fort.11.pe01
-rw-r--r-- 1 casassa users     284576 Jan 13 11:16 fort.11.pe02
-rw-r--r-- 1 casassa users     284576 Jan 13 11:16 fort.11.pe03
-rw-r--r-- 1 casassa users     284576 Jan 13 11:16 fort.11.pe04
-rw-r--r-- 1 casassa users     284576 Jan 13 11:16 fort.11.pe05
-rw-r--r-- 1 casassa users     284576 Jan 13 11:16 fort.11.pe06
-rw-r--r-- 1 casassa users     284576 Jan 13 11:16 fort.11.pe07
-rw-r--r-- 1 casassa users    1684392 Jan 13 11:16 fort.13.pe00
-rw-r--r-- 1 casassa users    1684392 Jan 13 11:16 fort.13.pe01
-rw-r--r-- 1 casassa users    1684392 Jan 13 11:16 fort.13.pe02
-rw-r--r-- 1 casassa users    1684392 Jan 13 11:16 fort.13.pe03
-rw-r--r-- 1 casassa users    1684392 Jan 13 11:16 fort.13.pe04
-rw-r--r-- 1 casassa users    1684392 Jan 13 11:16 fort.13.pe05
-rw-r--r-- 1 casassa users    1684392 Jan 13 11:16 fort.13.pe06
-rw-r--r-- 1 casassa users    1684392 Jan 13 11:16 fort.13.pe07
-rw-r--r-- 1 casassa users          0 Jan 13 11:16 fort.15.pe00
-rw-r--r-- 1 casassa users          0 Jan 13 11:16 fort.15.pe01
-rw-r--r-- 1 casassa users          0 Jan 13 11:16 fort.15.pe02
-rw-r--r-- 1 casassa users          0 Jan 13 11:16 fort.15.pe03
-rw-r--r-- 1 casassa users          0 Jan 13 11:16 fort.15.pe04
-rw-r--r-- 1 casassa users          0 Jan 13 11:16 fort.15.pe05
-rw-r--r-- 1 casassa users          0 Jan 13 11:16 fort.15.pe06
-rw-r--r-- 1 casassa users          0 Jan 13 11:16 fort.15.pe07
-rw-r--r-- 1 casassa users          0 Jan 13 11:16 fort.26.pe00
-rw-r--r-- 1 casassa users          0 Jan 13 11:16 fort.26.pe01
-rw-r--r-- 1 casassa users          0 Jan 13 11:16 fort.26.pe02
-rw-r--r-- 1 casassa users          0 Jan 13 11:16 fort.26.pe03
-rw-r--r-- 1 casassa users          0 Jan 13 11:16 fort.26.pe04
-rw-r--r-- 1 casassa users          0 Jan 13 11:16 fort.26.pe05
-rw-r--r-- 1 casassa users          0 Jan 13 11:16 fort.26.pe06
-rw-r--r-- 1 casassa users          0 Jan 13 11:16 fort.26.pe07
-rw-r--r-- 1 casassa users     284576 Jan 13 11:16 fort.3.pe00
-rw-r--r-- 1 casassa users     284576 Jan 13 11:16 fort.3.pe01
-rw-r--r-- 1 casassa users     284576 Jan 13 11:16 fort.3.pe02
-rw-r--r-- 1 casassa users     284576 Jan 13 11:16 fort.3.pe03
-rw-r--r-- 1 casassa users     284576 Jan 13 11:16 fort.3.pe04
-rw-r--r-- 1 casassa users     284576 Jan 13 11:16 fort.3.pe05
-rw-r--r-- 1 casassa users     284576 Jan 13 11:16 fort.3.pe06
-rw-r--r-- 1 casassa users     284576 Jan 13 11:16 fort.3.pe07
-rw-r--r-- 1 casassa users     419552 Jan 13 11:16 fort.61.pe00
-rw-r--r-- 1 casassa users     411408 Jan 13 11:16 fort.61.pe01
-rw-r--r-- 1 casassa users     281904 Jan 13 11:16 fort.61.pe02
-rw-r--r-- 1 casassa users     277104 Jan 13 11:16 fort.61.pe03
-rw-r--r-- 1 casassa users     315504 Jan 13 11:16 fort.61.pe04
-rw-r--r-- 1 casassa users     313328 Jan 13 11:16 fort.61.pe05
-rw-r--r-- 1 casassa users     272304 Jan 13 11:16 fort.61.pe06
-rw-r--r-- 1 casassa users     286704 Jan 13 11:16 fort.61.pe07
-rw-r--r-- 1 casassa users     145104 Jan 13 11:16 fort.62.pe00
-rw-r--r-- 1 casassa users     150112 Jan 13 11:16 fort.62.pe01
-rw-r--r-- 1 casassa users     144992 Jan 13 11:16 fort.62.pe02
-rw-r--r-- 1 casassa users     150112 Jan 13 11:16 fort.62.pe03
-rw-r--r-- 1 casassa users     144992 Jan 13 11:16 fort.62.pe04
-rw-r--r-- 1 casassa users     150112 Jan 13 11:16 fort.62.pe05
-rw-r--r-- 1 casassa users     144992 Jan 13 11:16 fort.62.pe06
-rw-r--r-- 1 casassa users     150112 Jan 13 11:16 fort.62.pe07
-rw-r--r-- 1 casassa users 5809536000 Jan 13 11:45 fort.70.pe00
-rw-r--r-- 1 casassa users 5809536000 Jan 13 11:45 fort.70.pe01
-rw-r--r-- 1 casassa users 5809536000 Jan 13 11:45 fort.70.pe02
-rw-r--r-- 1 casassa users 5809536000 Jan 13 11:45 fort.70.pe03
-rw-r--r-- 1 casassa users 5809536000 Jan 13 11:45 fort.70.pe04
-rw-r--r-- 1 casassa users 5809536000 Jan 13 11:45 fort.70.pe05
-rw-r--r-- 1 casassa users 5809536000 Jan 13 11:45 fort.70.pe06
-rw-r--r-- 1 casassa users 5809536000 Jan 13 11:45 fort.70.pe07
-rw-r--r-- 1 casassa users   35074992 Jan 13 11:16 fort.8.pe00
-rw-r--r-- 1 casassa users   35021200 Jan 13 11:16 fort.8.pe01
-rw-r--r-- 1 casassa users   35074992 Jan 13 11:16 fort.8.pe02
-rw-r--r-- 1 casassa users   35074992 Jan 13 11:16 fort.8.pe03
-rw-r--r-- 1 casassa users   35074992 Jan 13 11:16 fort.8.pe04
-rw-r--r-- 1 casassa users   35074992 Jan 13 11:16 fort.8.pe05
-rw-r--r-- 1 casassa users   35074992 Jan 13 11:16 fort.8.pe06
-rw-r--r-- 1 casassa users   35074992 Jan 13 11:16 fort.8.pe07
-rw-r--r-- 1 casassa users     386212 Jan 13 11:16 fort.9
