
         
 *******************************************************************************
 *                                                                             *
 *                               CRYSTAL17                                     *
 *                      public : 1.0.2 - March 1st, 2018                       *
 *                       HTTP://WWW.CRYSTAL.UNITO.IT                           *
 *                                                                             *
 *                              MAIN AUTHORS                                   *
 *                                                                             *
 *  R. DOVESI(1,11), V.R. SAUNDERS(2), C. ROETTI(1,11), R. ORLANDO(1,11),      *
 *  C.M. ZICOVICH-WILSON(1,3), F. PASCALE(4), B. CIVALLERI(1,11),              *
 *  K. DOLL(5), N.M. HARRISON(2,6), I.J. BUSH(7), Ph. D'ARCO(8),               *
 *  M. LLUNELL(9), M. CAUSA'(10), Y. NOEL(8), L. MASCHIO(1,11), A. ERBA(1,11)  *
 *  M. RE'RAT(14), S. CASASSA(1,11)                                            *
 *                                                                             *
 *        CONTRIBUTIONS TO THE CODE HAVE ALSO BEEN GIVEN BY                    *
 *                                                                             *
 *  M. FERRABONE(1,11), M. DE LA PIERRE(1,11), M. FERRERO(1,11),               *
 *  J. BAIMA(1,11), E. ALBANESE(1,11), M.F. PEINTINGER(12), R. BAST(13),       *
 *  B. KIRTMAN(15), V. LACIVITA(1,11), R. DEMICHELIS(1,16)                     *
 *  G. BRANDEBURG(17), S. SALUSTRO(1,11), G. SANSONE(1,11)                     *
 *  M.T. RUGGIERO(18)                                                          *
 *                                                                             *
 * (1) THEORETICAL CHEMISTRY GROUP - UNIVERSITA' DI TORINO - TORINO (ITALY)    *
 * (2) COMPUTATIONAL SCIENCE & ENGINEERING DEPARTMENT - STFC DARESBURY (UK)    *
 * (3) UNIVERSIDAD AUTONOMA DEL ESTADO DE MORELOS - CUERNAVACA (MEXICO)        *
 * (4) UNIVERSITE' DE LORRAINE - NANCY (FRANCE)                                *
 * (5) UNIVERSITAET STUTTGART- STUTTGART (GERMANY)                             *
 * (6) IMPERIAL COLLEGE - LONDON (UK)                                          *
 * (7) OXFORD E-RESEARCH CENTRE - OXFORD (UK)                                  *
 * (8) UPMC - SORBONNE UNIVERSITES - PARIS (FRANCE)                            *
 * (9) UNIVERSIDAD DE BARCELONA - BARCELONA (SPAIN)                            *
 *(10) UNIVERSITA' DI NAPOLI "FEDERICO II" - NAPOLI (ITALY)                    *
 *(11) NIS - NANOSTRUCTURED INTERFACES AND SURFACES - TORINO (ITALY)           *
 *(12) MPI FUER CHEMISCHE ENERGIEKONVERSION - MUELHEIM AN DER RUHR (GERMANY)   *
 *(13) UNIVERSITY OF TROMSO - TROMSO (NORWAY)                                  *
 *(14) UNIVERSITE' DE PAU ET DES PAYS DE L'ADOUR - PAU (FRANCE)                *
 *(15) UNIVERSITY OF CALIFORNIA SANTA BARBARA - SANTA BARBARA (USA)            *
 *(16) CURTIN UNIVERSITY - PERTH (AUSTRALIA)                                   *
 *(17) UNIVERSITY COLLEGE LONDON - LONDON (UK)                                 *
 *(18) CAMBRIDGE UNIVERSITY - CAMBRIDGE (UK)                                   *
 *                                                                             *
 *******************************************************************************
 EEEEEEEEEE STARTING  DATE 24 09 2020 TIME 13:57:42.0
 UREA MOLECULE BASE 6-21 + POLARIZATION                                          

 MOLECULAR CALCULATION
 POINT  GROUP  N. 15                  :  MM2    OR  C2V  
 CORRESPONDING SPACE GROUP            :  P M M 2         


 NUMBER OF IRREDUCIBLE ATOMS IN THE CONVENTIONAL CELL:    5

 INPUT COORDINATES

 ATOM AT. N.              COORDINATES
   1   6     0.000000000000E+00  0.000000000000E+00  0.000000000000E+00
   2   8     0.000000000000E+00  0.000000000000E+00  1.261401000000E+00
   3   7     0.000000000000E+00  1.148246660340E+00 -6.997900000000E-01
   4   1     0.000000000000E+00  2.026549650100E+00 -2.028170000000E-01
   5   1     0.000000000000E+00  1.134080483080E+00 -1.704975000000E+00

 COORDINATES OF THE EQUIVALENT ATOMS (ANGSTROMS)

 N. ATOM EQUIV AT. N.          X                  Y                  Z

   1   1   1    6 C     0.00000000000E+00  0.00000000000E+00  0.00000000000E+00

   2   2   1    8 O     0.00000000000E+00  0.00000000000E+00  1.26140100000E+00

   3   3   1    7 N     0.00000000000E+00  1.14824666034E+00 -6.99790000000E-01
   4   3   2    7 N     0.00000000000E+00 -1.14824666034E+00 -6.99790000000E-01

   5   4   1    1 H     0.00000000000E+00  2.02654965010E+00 -2.02817000000E-01
   6   4   2    1 H     0.00000000000E+00 -2.02654965010E+00 -2.02817000000E-01

   7   5   1    1 H     0.00000000000E+00  1.13408048308E+00 -1.70497500000E+00
   8   5   2    1 H     0.00000000000E+00 -1.13408048308E+00 -1.70497500000E+00

 NUMBER OF SYMMETRY OPERATORS         :    4
 *******************************************************************************
 * GEOMETRY EDITING - INPUT COORDINATES ARE GIVEN IN ANGSTROM         
 *******************************************************************************

 GEOMETRY NOW FULLY CONSISTENT WITH THE GROUP
 INFORMATION **** NEW DEFAULT **** FINALRUN 4 FOR GEOMETRY OPTIMIZATIONS
 INFORMATION **** NEW DEFAULT **** OPTGEOM OPTIMIZES BOTH ATOMIC COORDINATES AND CELL PARAMETERS
 INFORMATION **** NEW DEFAULT **** TOL. ON ATOMIC DISP TO REDEFINE REF. GEOMETRY: 0.8 Angs
 INFORMATION **** NEW DEFAULT **** N POINTS TO REDEFINE REF. GEOMETRY: N OF OPT DEGS OF FREEDOM
 INFORMATION **** NEW DEFAULT **** TOL. ON ENERGY TO REDEFINE REF. GEOMETRY: 10**-3*(5*N. ATOMS)

 IMPORTANT INFORMATION:
 THE COORDINATE SYSTEM ADOPTED IN THE OPTIMIZATION IS NOT IN
 GENERAL HOMOGENEOUS UNITS. FOR THIS REASON THE GRADIENT AND 
 HESSIAN MATRIX IN TERMS OF THIS SYSTEM ARE GIVEN WITHOUT
 UNITS. FOR MORE DETAILS SEE THE MANUAL.

 *******************************************************************************
 ATOMIC POSITIONS OPTIMIZATION CONTROL

 INITIAL TRUST RADIUS         0.50000 MAXIMUM TRUST RADIUS               4.00000
 MAXIMUM GRADIENT COMPONENT   0.00045 MAXIMUM DISPLACEMENT COMPONENT     0.00180
 R.M.S. OF GRADIENT COMPONENT 0.00030 R.M.S. OF DISPLACEMENT COMPONENTS  0.00120
 THRESHOLD ON ENERGY CHANGE 0.100E-06 EXTRAPOLATING POLYNOMIAL ORDER           2
 MAXIMUM ALLOWED NUMBER OF STEPS   -1 SORTING OF ENERGY POINTS:               NO
 ANALYTICAL  GRADIENT                 HESSIAN UPDATING                      BFGS
 STEP SIZE NUMERICAL GRADIENT 0.00100
 INITIAL HESSIAN MATRIX: SCHLEGEL MODEL 2
 *******************************************************************************


 GEOMETRY FOR WAVE FUNCTION - DIMENSIONALITY OF THE SYSTEM    0
 (NON PERIODIC DIRECTION: LATTICE PARAMETER FORMALLY SET TO 500)
 *******************************************************************************
 ATOMS IN THE ASYMMETRIC UNIT    5 - ATOMS IN THE UNIT CELL:    8
     ATOM             X(ANGSTROM)         Y(ANGSTROM)         Z(ANGSTROM)
 *******************************************************************************
      1 T   6 C     0.000000000000E+00  0.000000000000E+00  0.000000000000E+00
      2 T   8 O     0.000000000000E+00  0.000000000000E+00  1.261401000000E+00
      3 T   7 N     0.000000000000E+00  1.148246660340E+00 -6.997900000000E-01
      4 F   7 N     0.000000000000E+00 -1.148246660340E+00 -6.997900000000E-01
      5 T   1 H     0.000000000000E+00  2.026549650100E+00 -2.028170000000E-01
      6 F   1 H     0.000000000000E+00 -2.026549650100E+00 -2.028170000000E-01
      7 T   1 H     0.000000000000E+00  1.134080483080E+00 -1.704975000000E+00
      8 F   1 H     0.000000000000E+00 -1.134080483080E+00 -1.704975000000E+00

 T = ATOM BELONGING TO THE ASYMMETRIC UNIT

 ****    4 SYMMOPS - TRANSLATORS IN FRACTIONAL UNITS
 **** MATRICES AND TRANSLATORS IN THE CRYSTALLOGRAPHIC REFERENCE FRAME
   V INV                    ROTATION MATRICES                   TRANSLATORS
   1   1  1.00  0.00  0.00  0.00  1.00  0.00  0.00  0.00  1.00  0.00  0.00  0.00
   2   2 -1.00  0.00  0.00  0.00 -1.00  0.00  0.00  0.00  1.00  0.00  0.00  0.00
   3   3 -1.00  0.00  0.00  0.00  1.00  0.00  0.00  0.00  1.00  0.00  0.00  0.00
   4   4  1.00  0.00  0.00  0.00 -1.00  0.00  0.00  0.00  1.00  0.00  0.00  0.00

 *******************************************************************************
 LOCAL ATOMIC FUNCTIONS BASIS SET
 *******************************************************************************
   ATOM   X(AU)   Y(AU)   Z(AU)  N. TYPE  EXPONENT  S COEF   P COEF   D/F/G COEF
 *******************************************************************************
   1 C    0.000   0.000   0.000
                                  1 S  
                                         3.048E+03 1.826E-03 0.000E+00 0.000E+00
                                         4.564E+02 1.406E-02 0.000E+00 0.000E+00
                                         1.037E+02 6.876E-02 0.000E+00 0.000E+00
                                         2.923E+01 2.304E-01 0.000E+00 0.000E+00
                                         9.349E+00 4.685E-01 0.000E+00 0.000E+00
                                         3.189E+00 3.628E-01 0.000E+00 0.000E+00
                           2-     5 SP 
                                         3.665E+00-3.959E-01 2.365E-01 0.000E+00
                                         7.705E-01 1.216E+00 8.606E-01 0.000E+00
                           6-     9 SP 
                                         1.959E-01 1.000E+00 1.000E+00 0.000E+00
                          10-    14 D  
                                         8.000E-01 0.000E+00 0.000E+00 1.000E+00
   2 O    0.000   0.000   2.384
                                 15 S  
                                         5.472E+03 1.832E-03 0.000E+00 0.000E+00
                                         8.178E+02 1.410E-02 0.000E+00 0.000E+00
                                         1.864E+02 6.863E-02 0.000E+00 0.000E+00
                                         5.302E+01 2.294E-01 0.000E+00 0.000E+00
                                         1.718E+01 4.664E-01 0.000E+00 0.000E+00
                                         5.912E+00 3.642E-01 0.000E+00 0.000E+00
                          16-    19 SP 
                                         7.403E+00-4.045E-01 2.446E-01 0.000E+00
                                         1.576E+00 1.222E+00 8.540E-01 0.000E+00
                          20-    23 SP 
                                         3.737E-01 1.000E+00 1.000E+00 0.000E+00
                          24-    28 D  
                                         8.000E-01 0.000E+00 0.000E+00 1.000E+00
   3 N    0.000   2.170  -1.322
                                 29 S  
                                         4.150E+03 1.845E-03 0.000E+00 0.000E+00
                                         6.201E+02 1.416E-02 0.000E+00 0.000E+00
                                         1.417E+02 6.863E-02 0.000E+00 0.000E+00
                                         4.034E+01 2.286E-01 0.000E+00 0.000E+00
                                         1.303E+01 4.662E-01 0.000E+00 0.000E+00
                                         4.470E+00 3.657E-01 0.000E+00 0.000E+00
                          30-    33 SP 
                                         5.425E+00-4.133E-01 2.380E-01 0.000E+00
                                         1.149E+00 1.224E+00 8.590E-01 0.000E+00
                          34-    37 SP 
                                         2.832E-01 1.000E+00 1.000E+00 0.000E+00
                          38-    42 D  
                                         8.000E-01 0.000E+00 0.000E+00 1.000E+00
   4 N    0.000  -2.170  -1.322
   5 H    0.000   3.830  -0.383
                                 57 S  
                                         5.447E+00 1.563E-01 0.000E+00 0.000E+00
                                         8.245E-01 9.047E-01 0.000E+00 0.000E+00
                                 58 S  
                                         1.832E-01 1.000E+00 0.000E+00 0.000E+00
                          59-    61 P  
                                         1.100E+00 0.000E+00 1.000E+00 0.000E+00
   6 H    0.000  -3.830  -0.383
   7 H    0.000   2.143  -3.222
   8 H    0.000  -2.143  -3.222
 INFORMATION **** SET_MPP **** PCRYSTAL CALCULATION
 INFORMATION **** READM2 **** NEW DEFAULT: FOCK/KS MATRIX MIXING SET TO 30 %
 INFORMATION **** READM2 **** NEW DEFAULT: FULL DIRECT SCF MODE
 INFORMATION **** READM2 **** NEW DEFAULT: COULOMB BIPOLAR BUFFER SET TO 32 Mb
 INFORMATION **** READM2 **** NEW DEFAULT: EXCHANGE BIPOLAR BUFFER SET TO 32 Mb
 INFORMATION **** PPAN ****  MULLIKEN POPULATION ANALYSIS AT THE END OF SCF
 *******************************************************************************
 N. OF ATOMS PER CELL         8  COULOMB OVERLAP TOL         (T1) 10**   -6
 NUMBER OF SHELLS            28  COULOMB PENETRATION TOL     (T2) 10**   -6
 NUMBER OF AO                76  EXCHANGE OVERLAP TOL        (T3) 10**   -6
 N. OF ELECTRONS PER CELL    32  EXCHANGE PSEUDO OVP (F(G))  (T4) 10**   -6
 CORE ELECTRONS PER CELL      8  EXCHANGE PSEUDO OVP (P(G))  (T5) 10**  -12
 N. OF SYMMETRY OPERATORS     4  POLE ORDER IN MONO ZONE                  4
 *******************************************************************************
 TYPE OF CALCULATION :  RESTRICTED CLOSED SHELL
 HARTREE-FOCK HAMILTONIAN

 CAPPA:IS1  1;IS2  1;IS3  1; K PTS MONK NET   1; SYMMOPS:K SPACE   8;G SPACE   4

 *******************************************************************************
 MAX NUMBER OF SCF CYCLES      50  CONVERGENCE ON DELTAP        10**-16
 WEIGHT OF F(I) IN F(I+1)      30% CONVERGENCE ON ENERGY        10**- 7

 DISK SPACE FOR EIGENVECTORS (FTN 10)        5776 REALS

 SYMMETRY ADAPTION OF THE BLOCH FUNCTIONS ENABLED
 TTTTTTTTTTTTTTTTTTTTTTTTTTTTTT gordsh1     TELAPSE        0.00 TCPU        0.00

 MATRIX SIZE: P(G)    5716, F(G)    2651, P(G) IRR    1758, F(G) IRR    1635
 MAX G-VECTOR INDEX FOR 1- AND 2-ELECTRON INTEGRALS   1

 TTTTTTTTTTTTTTTTTTTTTTTTTTTTTT INPUT       TELAPSE        0.00 TCPU        0.00

 NEIGHBORS OF THE NON-EQUIVALENT ATOMS

 N = NUMBER OF NEIGHBORS AT DISTANCE R
    ATOM  N     R/ANG      R/AU   NEIGHBORS (ATOM LABELS AND CELL INDICES)
   1 C    1     1.2614     2.3837    2 O    0 0 0
   1 C    2     1.3447     2.5411    3 N    0 0 0    4 N    0 0 0
   1 C    2     2.0367     3.8488    5 H    0 0 0    6 H    0 0 0
   1 C    2     2.0477     3.8696    7 H    0 0 0    8 H    0 0 0

   2 O    1     1.2614     2.3837    1 C    0 0 0
   2 O    2     2.2726     4.2946    3 N    0 0 0    4 N    0 0 0
   2 O    2     2.5002     4.7246    5 H    0 0 0    6 H    0 0 0
   2 O    2     3.1758     6.0013    7 H    0 0 0    8 H    0 0 0

   3 N    1     1.0053     1.8997    7 H    0 0 0
   3 N    1     1.0092     1.9070    5 H    0 0 0
   3 N    1     1.3447     2.5411    1 C    0 0 0
   3 N    1     2.2726     4.2946    2 O    0 0 0
   3 N    1     2.2965     4.3397    4 N    0 0 0
   3 N    1     2.4939     4.7127    8 H    0 0 0

   5 H    1     1.0092     1.9070    3 N    0 0 0
   5 H    1     1.7473     3.3019    7 H    0 0 0
   5 H    1     2.0367     3.8488    1 C    0 0 0
   5 H    1     2.5002     4.7246    2 O    0 0 0
   5 H    1     3.2135     6.0726    4 N    0 0 0
   5 H    1     3.4994     6.6130    8 H    0 0 0

   7 H    1     1.0053     1.8997    3 N    0 0 0
   7 H    1     1.7473     3.3019    5 H    0 0 0
   7 H    1     2.0477     3.8696    1 C    0 0 0
   7 H    1     2.2682     4.2862    8 H    0 0 0
   7 H    1     2.4939     4.7127    4 N    0 0 0
   7 H    1     3.1758     6.0013    2 O    0 0 0


 SYMMETRY ALLOWED INTERNAL DEGREE(S) OF FREEDOM:   7
 TTTTTTTTTTTTTTTTTTTTTTTTTTTTTT SYMM        TELAPSE        0.00 TCPU        0.00
 TTTTTTTTTTTTTTTTTTTTTTTTTTTTTT INT_SCREEN  TELAPSE        0.00 TCPU        0.00

 *******************************************************************************
 *                             OPTIMIZATION STARTS                             *
 *******************************************************************************
 RECLASIFICATION OF INDICES FOR INTEGRAL CALC ACCORDING TO DIFFERENT CRITERIA:
           FIXDELTE                  FIXDELTX              FIXDELTN
          0.10000000               0.80000000                 10
 DEFAULT MAX NUM OF POINTS  100
 *******************************************************************************

 *******************************************************************************
 COORDINATE OPTIMIZATION - POINT    1
 INFORMATION **** EXCBUF **** EXCH. BIPO BUFFER: WORDS USED =       53874
 TTTTTTTTTTTTTTTTTTTTTTTTTTTTTT INT_CALC    TELAPSE        0.01 TCPU        0.01

 *******************************************************************************
 UREA MOLECULE BASE 6-21 + POLARIZATION                                          
 CRYSTAL - SCF - TYPE OF CALCULATION :  RESTRICTED CLOSED SHELL
 *******************************************************************************

 CAPPA:IS1  1;IS2  1;IS3  1; K PTS MONK NET   1; SYMMOPS:K SPACE   8;G SPACE   4

 TTTTTTTTTTTTTTTTTTTTTTTTTTTTTT SDIK        TELAPSE        0.01 TCPU        0.01

 AAAAAAAAAAAAAAAAAAAAAAAAAAAAAAAAAAAAAAAAAAAAAAAAAAAAAAAAAAAAAAAAAAAAAAAAAAAAAAA
         ATOMIC WAVEFUNCTION(S)


 NUCLEAR CHARGE  6.0  SYMMETRY SPECIES            S    P
 N. ELECTRONS    6.0  NUMBER OF PRIMITIVE GTOS    9    3
                      NUMBER OF CONTRACTED GTOS   3    2
                      NUMBER OF CLOSED SHELLS     2    0
                      OPEN SHELL OCCUPATION       0    2

  ZNUC SCFIT  TOTAL HF ENERGY   KINETIC ENERGY   VIRIAL THEOREM ACCURACY
   6.0   9   -3.765831823E+01  3.765320062E+01 -2.000135914E+00  1.5E-06

 NUCLEAR CHARGE  8.0  SYMMETRY SPECIES            S    P
 N. ELECTRONS    8.0  NUMBER OF PRIMITIVE GTOS    9    3
                      NUMBER OF CONTRACTED GTOS   3    2
                      NUMBER OF CLOSED SHELLS     2    0
                      OPEN SHELL OCCUPATION       0    4

  ZNUC SCFIT  TOTAL HF ENERGY   KINETIC ENERGY   VIRIAL THEOREM ACCURACY
   8.0  10   -7.469910437E+01  7.469021188E+01 -2.000119058E+00  4.4E-06

 NUCLEAR CHARGE  7.0  SYMMETRY SPECIES            S    P
 N. ELECTRONS    7.0  NUMBER OF PRIMITIVE GTOS    9    3
                      NUMBER OF CONTRACTED GTOS   3    2
                      NUMBER OF CLOSED SHELLS     2    0
                      OPEN SHELL OCCUPATION       0    3

  ZNUC SCFIT  TOTAL HF ENERGY   KINETIC ENERGY   VIRIAL THEOREM ACCURACY
   7.0   8   -5.434075198E+01  5.432977783E+01 -2.000201992E+00  3.0E-06

 NUCLEAR CHARGE  1.0  SYMMETRY SPECIES            S
 N. ELECTRONS    1.0  NUMBER OF PRIMITIVE GTOS    3
                      NUMBER OF CONTRACTED GTOS   2
                      NUMBER OF CLOSED SHELLS     0
                      OPEN SHELL OCCUPATION       1

  ZNUC SCFIT  TOTAL HF ENERGY   KINETIC ENERGY   VIRIAL THEOREM ACCURACY
   1.0   1   -4.961986360E-01  5.144743151E-01 -1.964476984E+00  0.0E+00

 AAAAAAAAAAAAAAAAAAAAAAAAAAAAAAAAAAAAAAAAAAAAAAAAAAAAAAAAAAAAAAAAAAAAAAAAAAAAAAA

 CHARGE NORMALIZATION FACTOR   1.00000000
 TOTAL ATOMIC CHARGES:
   6.0000000   8.0000000   7.0000000   7.0000000   1.0000000   1.0000000
   1.0000000   1.0000000
 TTTTTTTTTTTTTTTTTTTTTTTTTTTTTT MOQGAD      TELAPSE        0.02 TCPU        0.01
 TTTTTTTTTTTTTTTTTTTTTTTTTTTTTT SHELLXN     TELAPSE        0.40 TCPU        0.39
 TTTTTTTTTTTTTTTTTTTTTTTTTTTTTT MONMO3      TELAPSE        0.40 TCPU        0.39
 CYC   0 ETOT(AU) -2.248960100887E+02 DETOT -2.25E+02 tst  0.00E+00 PX  1.00E+00
 TTTTTTTTTTTTTTTTTTTTTTTTTTTTTT DIIS        TELAPSE        0.40 TCPU        0.39
 TTTTTTTTTTTTTTTTTTTTTTTTTTTTTT FDIK        TELAPSE        0.54 TCPU        0.39
 INSULATING STATE
 TOP OF VALENCE BANDS -    BAND     16; K    1; EIG -2.8674510E-01 AU
 BOTTOM OF VIRTUAL BANDS - BAND     17; K    1; EIG  1.4762531E-01 AU
 DIRECT ENERGY BAND GAP:  11.8198 eV
 TTTTTTTTTTTTTTTTTTTTTTTTTTTTTT PDIG        TELAPSE        0.54 TCPU        0.39
 CHARGE NORMALIZATION FACTOR   1.00000000
 TOTAL ATOMIC CHARGES:
   4.6270879   9.1200173   7.7243459   7.7243459   0.7009260   0.7009260
   0.7011755   0.7011755
 TTTTTTTTTTTTTTTTTTTTTTTTTTTTTT MOQGAD      TELAPSE        0.55 TCPU        0.40
 TTTTTTTTTTTTTTTTTTTTTTTTTTTTTT SHELLXN     TELAPSE        0.92 TCPU        0.77
 TTTTTTTTTTTTTTTTTTTTTTTTTTTTTT MONMO3      TELAPSE        0.92 TCPU        0.77
 CYC   1 ETOT(AU) -2.236759042360E+02 DETOT  1.22E+00 tst  0.00E+00 PX  1.00E+00
 TTTTTTTTTTTTTTTTTTTTTTTTTTTTTT DIIS        TELAPSE        0.94 TCPU        0.77
 DIIS TEST: 0.43468E+00 AT SCF   CYCLE   1 - MIX   30 %
 TTTTTTTTTTTTTTTTTTTTTTTTTTTTTT FDIK        TELAPSE        0.94 TCPU        0.78
 INSULATING STATE
 TOP OF VALENCE BANDS -    BAND     16; K    1; EIG -2.9358834E-01 AU
 BOTTOM OF VIRTUAL BANDS - BAND     17; K    1; EIG  1.9322766E-01 AU
 DIRECT ENERGY BAND GAP:  13.2469 eV
 TTTTTTTTTTTTTTTTTTTTTTTTTTTTTT PDIG        TELAPSE        0.94 TCPU        0.78
 CHARGE NORMALIZATION FACTOR   1.00000000
 TOTAL ATOMIC CHARGES:
   4.9582663   8.6781432   7.7320343   7.7320343   0.7080062   0.7080062
   0.7417549   0.7417549
 TTTTTTTTTTTTTTTTTTTTTTTTTTTTTT MOQGAD      TELAPSE        0.94 TCPU        0.78
 TTTTTTTTTTTTTTTTTTTTTTTTTTTTTT SHELLXN     TELAPSE        1.31 TCPU        1.15
 TTTTTTTTTTTTTTTTTTTTTTTTTTTTTT MONMO3      TELAPSE        1.31 TCPU        1.15
 CYC   2 ETOT(AU) -2.237747928987E+02 DETOT -9.89E-02 tst  5.06E-03 PX  1.16E-01
 TTTTTTTTTTTTTTTTTTTTTTTTTTTTTT DIIS        TELAPSE        1.32 TCPU        1.15
 DIIS TEST: 0.50756E-01 AT SCF   CYCLE   2 - DIIS ACTIVE - HISTORY:     2 CYCLES
 TTTTTTTTTTTTTTTTTTTTTTTTTTTTTT FDIK        TELAPSE        1.32 TCPU        1.15
 INSULATING STATE
 TOP OF VALENCE BANDS -    BAND     16; K    1; EIG -3.6853063E-01 AU
 BOTTOM OF VIRTUAL BANDS - BAND     17; K    1; EIG  2.3333168E-01 AU
 DIRECT ENERGY BAND GAP:  16.3775 eV
 TTTTTTTTTTTTTTTTTTTTTTTTTTTTTT PDIG        TELAPSE        1.32 TCPU        1.15
 CHARGE NORMALIZATION FACTOR   1.00000000
 TOTAL ATOMIC CHARGES:
   4.8239585   8.7670168   7.7072348   7.7072348   0.7304122   0.7304122
   0.7668653   0.7668653
 TTTTTTTTTTTTTTTTTTTTTTTTTTTTTT MOQGAD      TELAPSE        1.33 TCPU        1.16
 TTTTTTTTTTTTTTTTTTTTTTTTTTTTTT SHELLXN     TELAPSE        1.81 TCPU        1.64
 TTTTTTTTTTTTTTTTTTTTTTTTTTTTTT MONMO3      TELAPSE        1.81 TCPU        1.64
 CYC   3 ETOT(AU) -2.237860557158E+02 DETOT -1.13E-02 tst  3.83E-04 PX  3.84E-02
 TTTTTTTTTTTTTTTTTTTTTTTTTTTTTT DIIS        TELAPSE        1.81 TCPU        1.64
 DIIS TEST: 0.47795E-02 AT SCF   CYCLE   3 - DIIS ACTIVE - HISTORY:     3 CYCLES
 TTTTTTTTTTTTTTTTTTTTTTTTTTTTTT FDIK        TELAPSE        1.81 TCPU        1.64
 INSULATING STATE
 TOP OF VALENCE BANDS -    BAND     16; K    1; EIG -3.6866050E-01 AU
 BOTTOM OF VIRTUAL BANDS - BAND     17; K    1; EIG  2.3715509E-01 AU
 DIRECT ENERGY BAND GAP:  16.4851 eV
 TTTTTTTTTTTTTTTTTTTTTTTTTTTTTT PDIG        TELAPSE        1.81 TCPU        1.65
 CHARGE NORMALIZATION FACTOR   1.00000000
 TOTAL ATOMIC CHARGES:
   4.8187964   8.7355665   7.7237745   7.7237745   0.7302359   0.7302359
   0.7688082   0.7688082
 TTTTTTTTTTTTTTTTTTTTTTTTTTTTTT MOQGAD      TELAPSE        1.82 TCPU        1.65
 TTTTTTTTTTTTTTTTTTTTTTTTTTTTTT SHELLXN     TELAPSE        2.31 TCPU        2.14
 TTTTTTTTTTTTTTTTTTTTTTTTTTTTTT MONMO3      TELAPSE        2.31 TCPU        2.14
 CYC   4 ETOT(AU) -2.237874117106E+02 DETOT -1.36E-03 tst  2.03E-04 PX  1.21E-02
 TTTTTTTTTTTTTTTTTTTTTTTTTTTTTT DIIS        TELAPSE        2.31 TCPU        2.15
 DIIS TEST: 0.32731E-03 AT SCF   CYCLE   4 - DIIS ACTIVE - HISTORY:     4 CYCLES
 TTTTTTTTTTTTTTTTTTTTTTTTTTTTTT FDIK        TELAPSE        2.32 TCPU        2.15
 INSULATING STATE
 TOP OF VALENCE BANDS -    BAND     16; K    1; EIG -3.6731261E-01 AU
 BOTTOM OF VIRTUAL BANDS - BAND     17; K    1; EIG  2.3894812E-01 AU
 DIRECT ENERGY BAND GAP:  16.4972 eV
 TTTTTTTTTTTTTTTTTTTTTTTTTTTTTT PDIG        TELAPSE        2.32 TCPU        2.15
 CHARGE NORMALIZATION FACTOR   1.00000000
 TOTAL ATOMIC CHARGES:
   4.8221939   8.7361831   7.7152932   7.7152932   0.7334776   0.7334776
   0.7720407   0.7720407
 TTTTTTTTTTTTTTTTTTTTTTTTTTTTTT MOQGAD      TELAPSE        2.32 TCPU        2.15
 TTTTTTTTTTTTTTTTTTTTTTTTTTTTTT SHELLXN     TELAPSE        2.69 TCPU        2.52
 TTTTTTTTTTTTTTTTTTTTTTTTTTTTTT MONMO3      TELAPSE        2.69 TCPU        2.52
 CYC   5 ETOT(AU) -2.237875211636E+02 DETOT -1.09E-04 tst  6.74E-06 PX  5.37E-03
 TTTTTTTTTTTTTTTTTTTTTTTTTTTTTT DIIS        TELAPSE        2.69 TCPU        2.52
 DIIS TEST: 0.27850E-04 AT SCF   CYCLE   5 - DIIS ACTIVE - HISTORY:     5 CYCLES
 TTTTTTTTTTTTTTTTTTTTTTTTTTTTTT FDIK        TELAPSE        2.69 TCPU        2.52
 INSULATING STATE
 TOP OF VALENCE BANDS -    BAND     16; K    1; EIG -3.6716868E-01 AU
 BOTTOM OF VIRTUAL BANDS - BAND     17; K    1; EIG  2.3838524E-01 AU
 DIRECT ENERGY BAND GAP:  16.4780 eV
 TTTTTTTTTTTTTTTTTTTTTTTTTTTTTT PDIG        TELAPSE        2.69 TCPU        2.52
 CHARGE NORMALIZATION FACTOR   1.00000000
 TOTAL ATOMIC CHARGES:
   4.8208089   8.7351573   7.7162938   7.7162938   0.7336671   0.7336671
   0.7720559   0.7720559
 TTTTTTTTTTTTTTTTTTTTTTTTTTTTTT MOQGAD      TELAPSE        2.69 TCPU        2.53
 TTTTTTTTTTTTTTTTTTTTTTTTTTTTTT SHELLXN     TELAPSE        3.06 TCPU        2.89
 TTTTTTTTTTTTTTTTTTTTTTTTTTTTTT MONMO3      TELAPSE        3.06 TCPU        2.89
 CYC   6 ETOT(AU) -2.237875430700E+02 DETOT -2.19E-05 tst  4.79E-06 PX  2.11E-03
 TTTTTTTTTTTTTTTTTTTTTTTTTTTTTT DIIS        TELAPSE        3.06 TCPU        2.89
 DIIS TEST: 0.58758E-05 AT SCF   CYCLE   6 - DIIS ACTIVE - HISTORY:     6 CYCLES
 TTTTTTTTTTTTTTTTTTTTTTTTTTTTTT FDIK        TELAPSE        3.20 TCPU        2.89
 INSULATING STATE
 TOP OF VALENCE BANDS -    BAND     16; K    1; EIG -3.6727373E-01 AU
 BOTTOM OF VIRTUAL BANDS - BAND     17; K    1; EIG  2.3857262E-01 AU
 DIRECT ENERGY BAND GAP:  16.4859 eV
 TTTTTTTTTTTTTTTTTTTTTTTTTTTTTT PDIG        TELAPSE        3.20 TCPU        2.89
 CHARGE NORMALIZATION FACTOR   1.00000000
 TOTAL ATOMIC CHARGES:
   4.8212316   8.7348967   7.7157104   7.7157104   0.7340381   0.7340381
   0.7721873   0.7721873
 TTTTTTTTTTTTTTTTTTTTTTTTTTTTTT MOQGAD      TELAPSE        3.20 TCPU        2.89
 TTTTTTTTTTTTTTTTTTTTTTTTTTTTTT SHELLXN     TELAPSE        3.59 TCPU        3.28
 TTTTTTTTTTTTTTTTTTTTTTTTTTTTTT MONMO3      TELAPSE        3.59 TCPU        3.28
 CYC   7 ETOT(AU) -2.237875478838E+02 DETOT -4.81E-06 tst  1.50E-06 PX  1.43E-03
 TTTTTTTTTTTTTTTTTTTTTTTTTTTTTT DIIS        TELAPSE        3.59 TCPU        3.28
 DIIS TEST: 0.43372E-06 AT SCF   CYCLE   7 - DIIS ACTIVE - HISTORY:     7 CYCLES
 TTTTTTTTTTTTTTTTTTTTTTTTTTTTTT FDIK        TELAPSE        3.59 TCPU        3.28
 INSULATING STATE
 TOP OF VALENCE BANDS -    BAND     16; K    1; EIG -3.6714408E-01 AU
 BOTTOM OF VIRTUAL BANDS - BAND     17; K    1; EIG  2.3862064E-01 AU
 DIRECT ENERGY BAND GAP:  16.4837 eV
 TTTTTTTTTTTTTTTTTTTTTTTTTTTTTT PDIG        TELAPSE        3.59 TCPU        3.28
 CHARGE NORMALIZATION FACTOR   1.00000000
 TOTAL ATOMIC CHARGES:
   4.8211071   8.7348323   7.7157205   7.7157205   0.7341153   0.7341153
   0.7721946   0.7721946
 TTTTTTTTTTTTTTTTTTTTTTTTTTTTTT MOQGAD      TELAPSE        3.60 TCPU        3.29
 TTTTTTTTTTTTTTTTTTTTTTTTTTTTTT SHELLXN     TELAPSE        3.97 TCPU        3.66
 TTTTTTTTTTTTTTTTTTTTTTTTTTTTTT MONMO3      TELAPSE        3.97 TCPU        3.66
 CYC   8 ETOT(AU) -2.237875481594E+02 DETOT -2.76E-07 tst  1.14E-07 PX  2.81E-04
 TTTTTTTTTTTTTTTTTTTTTTTTTTTTTT DIIS        TELAPSE        3.97 TCPU        3.66
 DIIS TEST: 0.49508E-07 AT SCF   CYCLE   8 - DIIS ACTIVE - HISTORY:     8 CYCLES
 TTTTTTTTTTTTTTTTTTTTTTTTTTTTTT FDIK        TELAPSE        3.97 TCPU        3.66
 INSULATING STATE
 TOP OF VALENCE BANDS -    BAND     16; K    1; EIG -3.6717443E-01 AU
 BOTTOM OF VIRTUAL BANDS - BAND     17; K    1; EIG  2.3862648E-01 AU
 DIRECT ENERGY BAND GAP:  16.4847 eV
 TTTTTTTTTTTTTTTTTTTTTTTTTTTTTT PDIG        TELAPSE        3.97 TCPU        3.66
 CHARGE NORMALIZATION FACTOR   1.00000000
 TOTAL ATOMIC CHARGES:
   4.8210768   8.7348679   7.7157389   7.7157389   0.7341147   0.7341147
   0.7721740   0.7721740
 TTTTTTTTTTTTTTTTTTTTTTTTTTTTTT MOQGAD      TELAPSE        3.97 TCPU        3.67
 TTTTTTTTTTTTTTTTTTTTTTTTTTTTTT SHELLXN     TELAPSE        4.36 TCPU        4.05
 TTTTTTTTTTTTTTTTTTTTTTTTTTTTTT MONMO3      TELAPSE        4.37 TCPU        4.05
 CYC   9 ETOT(AU) -2.237875481926E+02 DETOT -3.32E-08 tst  4.29E-09 PX  7.64E-05
 TTTTTTTTTTTTTTTTTTTTTTTTTTTTTT DIIS        TELAPSE        4.37 TCPU        4.05
 DIIS TEST: 0.34164E-08 AT SCF   CYCLE   9 - DIIS ACTIVE - HISTORY:     9 CYCLES
 TTTTTTTTTTTTTTTTTTTTTTTTTTTTTT FDIK        TELAPSE        4.37 TCPU        4.05
 INSULATING STATE
 TOP OF VALENCE BANDS -    BAND     16; K    1; EIG -3.6716037E-01 AU
 BOTTOM OF VIRTUAL BANDS - BAND     17; K    1; EIG  2.3862734E-01 AU
 DIRECT ENERGY BAND GAP:  16.4843 eV
 TTTTTTTTTTTTTTTTTTTTTTTTTTTTTT PDIG        TELAPSE        4.37 TCPU        4.05
 CHARGE NORMALIZATION FACTOR   1.00000000
 TOTAL ATOMIC CHARGES:
   4.8210644   8.7348696   7.7157470   7.7157470   0.7341146   0.7341146
   0.7721714   0.7721714
 TTTTTTTTTTTTTTTTTTTTTTTTTTTTTT MOQGAD      TELAPSE        4.37 TCPU        4.05
 TTTTTTTTTTTTTTTTTTTTTTTTTTTTTT SHELLXN     TELAPSE        4.73 TCPU        4.41

 ::: DIPOLE MOMENT ALONG NON PERIODIC DIRECTIONS:
 ::: A.U.     (X)  0.00000E+00   (Y)  0.00000E+00   (Z)  1.84630E+00
 ::: DEBYE         0.00000E+00        0.00000E+00       -4.69284E+00

 +++ ENERGIES IN A.U. +++
 ::: EXT EL-POLE                                   1.1094012434799E+01
 ::: EXT EL-SPHEROPOLE                             0.0000000000000E+00
 ::: BIELET ZONE E-E                               1.9296004445447E+02
 ::: TOTAL E-E                                     2.0405405688927E+02
 ::: TOTAL E-N + N-E                              -7.7543612136985E+02
 ::: TOTAL N-N                                     1.2409421422847E+02
 ::: KINETIC ENERGY                                2.2350030204573E+02
 ::: TOTAL   ENERGY                               -2.2378754820639E+02
 ::: VIRIAL COEFFICIENT                            9.9935780468773E-01
 TTTTTTTTTTTTTTTTTTTTTTTTTTTTTT MONMO3      TELAPSE        4.73 TCPU        4.42
 CYC  10 ETOT(AU) -2.237875482064E+02 DETOT -1.38E-08 tst  3.95E-10 PX  7.64E-05

 == SCF ENDED - CONVERGENCE ON ENERGY      E(AU) -2.2378754820639E+02 CYCLES  10

 TOTAL ENERGY(HF)(AU)(  10) -2.2378754820639E+02 DE-1.4E-08 tst 3.9E-10 PX 7.6E-05

 *******************************************************************************
 *                             FORCE CALCULATION                               *
 *******************************************************************************

 INFORMATION **** EXCPOG **** EXCH. BIPO BUFFER LENGTH (WORDS) =      215496
 INFORMATION **** GENPOG **** BIPO BUFFER LENGTH (WORDS) =       35100
 TTTTTTTTTTTTTTTTTTTTTTTTTTTTTT SHELXG      TELAPSE        7.43 TCPU        7.11

 CARTESIAN FORCES IN HARTREE/BOHR (ANALYTICAL)
   ATOM                     X                   Y                   Z
   1   6             0.000000000000E+00  0.000000000000E+00  1.159392126776E-01
   2   8             0.000000000000E+00  0.000000000000E+00 -8.758740967931E-02
   3   7             0.000000000000E+00  9.694476407516E-03 -2.020535334121E-02
   4   7             0.000000000000E+00 -9.694476407518E-03 -2.020535334121E-02
   5   1             0.000000000000E+00 -1.738621738578E-02 -6.839486861163E-03
   6   1             0.000000000000E+00  1.738621738578E-02 -6.839486861163E-03
   7   1             0.000000000000E+00  6.304387053526E-03  1.286893870310E-02
   8   1             0.000000000000E+00 -6.304387053526E-03  1.286893870310E-02

 RESULTANT FORCE     0.000000000000E+00 -1.332267629550E-15 -2.828848266745E-13

 SYMMETRY ALLOWED FORCES (ANALYTICAL) (DIRECTION, FORCE)

    1  1.2394423E-01    2 -7.6715406E-02    3  1.3710060E-02    4 -2.6812238E-02
    5 -2.4587824E-02    6 -1.9708426E-02    7  8.9157497E-03
 TTTTTTTTTTTTTTTTTTTTTTTTTTTTTT TOTGRA      TELAPSE        7.45 TCPU        7.13
 INFORMATION **** opta001 **** GEOMETRY OUTPUT FILE
 CLASSICAL MODEL (SCHLEGEL) USED AS INITIAL HESSIAN MATRIX
 REFERENCE GEOMETRY DEFINED

 MAX GRADIENT      0.123944  THRESHOLD              0.000450 CONVERGED NO
 RMS GRADIENT      0.057603  THRESHOLD              0.000300 CONVERGED NO

 GRADIENT NORM     0.152403  GRADIENT THRESHOLD     0.500000

 EIGENVALUES OF THE ESTIMATED HESSIAN
  0.2331E-01  0.9173E-01  0.2013      0.3346      0.9856       1.252    
   1.697    

 INITIAL TRUST RADIUS    0.5000000000E+00

 PREDICTED ENERGY CHANGE    -0.878E-02

 INITIAL DISPLACEMENTS
  0.049789 -0.098233 -0.022987 -0.026775 -0.104918 -0.008301  0.078349
 TTTTTTTTTTTTTTTTTTTTTTTTTTTTTT OPTI        TELAPSE        7.45 TCPU        7.13

 OPTOPTOPTOPTOPTOPTOPTOPTOPTOPTOPTOPTOPTOPTOPTOPTOPTOPTOPTOPTOPTOPTOPTOPTOPTOPT

 - INFORMATION ON SCF MOVED TO SCFOUT.LOG
 GEOMETRY OPTIMIZATION INFORMATION STORED IN OPTINFO.DAT

 OPTOPTOPTOPTOPTOPTOPTOPTOPTOPTOPTOPTOPTOPTOPTOPTOPTOPTOPTOPTOPTOPTOPTOPTOPTOPT
 *******************************************************************************
 COORDINATE OPTIMIZATION - POINT    2
 *******************************************************************************
 ATOMS IN THE ASYMMETRIC UNIT    5 - ATOMS IN THE UNIT CELL:    8
     ATOM             X(ANGSTROM)         Y(ANGSTROM)         Z(ANGSTROM)
 *******************************************************************************
      1 T   6 C     0.000000000000E+00  2.222315930358E-20  2.464553221134E-02
      2 T   8 O     0.000000000000E+00  7.894343387481E-20  1.209753658087E+00
      3 T   7 N     0.000000000000E+00  1.139645161533E+00 -7.034701378563E-01
      4 F   7 N     0.000000000000E+00 -1.139645161533E+00 -7.034701378563E-01
      5 T   1 H     0.000000000000E+00  1.987291078201E+00 -1.964228875587E-01
      6 F   1 H     0.000000000000E+00 -1.987291078201E+00 -1.964228875587E-01
      7 T   1 H     0.000000000000E+00  1.163397376629E+00 -1.694188069734E+00
      8 F   1 H     0.000000000000E+00 -1.163397376629E+00 -1.694188069734E+00

 T = ATOM BELONGING TO THE ASYMMETRIC UNIT

 TOTAL ENERGY(HF)(AU)(   8) -2.2379541103501E+02     DE (AU)   -7.863E-03

 UPDATED TRUST RADIUS     0.100E+01

 SYMMETRY ALLOWED FORCES  (COORDINATE, FORCE)

    1 -9.5863834E-03    2  2.4642633E-02    3  6.6498933E-03    4 -1.1910582E-02
    5  5.6711982E-03    6  1.0301431E-03    7  4.8170083E-04

 GRADIENT NORM     0.030310  GRADIENT THRESHOLD     0.500000

 EIGENVALUES OF THE ESTIMATED HESSIAN
  0.2340E-01  0.9457E-01  0.1961      0.3690       1.022       1.295    
   1.691    

 PREDICTED ENERGY CHANGE    -0.655E-03

 MAX GRADIENT      0.024643  THRESHOLD              0.000450 CONVERGED NO
 RMS GRADIENT      0.011456  THRESHOLD              0.000300 CONVERGED NO
 MAX DISPLAC.      0.052330  THRESHOLD              0.001800 CONVERGED NO
 RMS DISPLAC.      0.025923  THRESHOLD              0.001200 CONVERGED NO
 TTTTTTTTTTTTTTTTTTTTTTTTTTTTTT OPTI        TELAPSE       13.59 TCPU       13.27
 *******************************************************************************
 COORDINATE OPTIMIZATION - POINT    3
 *******************************************************************************
 ATOMS IN THE ASYMMETRIC UNIT    5 - ATOMS IN THE UNIT CELL:    8
     ATOM             X(ANGSTROM)         Y(ANGSTROM)         Z(ANGSTROM)
 *******************************************************************************
      1 T   6 C     0.000000000000E+00  2.396215743310E-20  3.461922609881E-02
      2 T   8 O     0.000000000000E+00  8.512088515305E-20  1.233966353393E+00
      3 T   7 N     0.000000000000E+00  1.145194730545E+00 -7.075696589166E-01
      4 F   7 N     0.000000000000E+00 -1.145194730545E+00 -7.075696589166E-01
      5 T   1 H     0.000000000000E+00  1.999836641311E+00 -2.064491114953E-01
      6 F   1 H     0.000000000000E+00 -1.999836641311E+00 -2.064491114953E-01
      7 T   1 H     0.000000000000E+00  1.164589919884E+00 -1.697155519334E+00
      8 F   1 H     0.000000000000E+00 -1.164589919884E+00 -1.697155519334E+00

 T = ATOM BELONGING TO THE ASYMMETRIC UNIT

 TOTAL ENERGY(HF)(AU)(   6) -2.2379585355582E+02     DE (AU)   -4.425E-04

 UPDATED TRUST RADIUS     0.100E+01

 SYMMETRY ALLOWED FORCES  (COORDINATE, FORCE)

    1  3.1458594E-03    2 -8.6226462E-03    3 -3.2983370E-03    4  3.8424711E-03
    5  1.5564939E-03    6  1.1796695E-03    7 -9.7246894E-04

 GRADIENT NORM     0.010707  GRADIENT THRESHOLD     0.500000

 EIGENVALUES OF THE ESTIMATED HESSIAN
  0.2323E-01  0.9241E-01  0.2139      0.3754       1.126       1.329    
   1.795    

 PREDICTED ENERGY CHANGE    -0.594E-04

 MAX GRADIENT      0.008623  THRESHOLD              0.000450 CONVERGED NO
 RMS GRADIENT      0.004047  THRESHOLD              0.000300 CONVERGED NO
 MAX DISPLAC.      0.012068  THRESHOLD              0.001800 CONVERGED NO
 RMS DISPLAC.      0.006578  THRESHOLD              0.001200 CONVERGED NO
 TTTTTTTTTTTTTTTTTTTTTTTTTTTTTT OPTI        TELAPSE       19.05 TCPU       18.73
 *******************************************************************************
 COORDINATE OPTIMIZATION - POINT    4
 *******************************************************************************
 ATOMS IN THE ASYMMETRIC UNIT    5 - ATOMS IN THE UNIT CELL:    8
     ATOM             X(ANGSTROM)         Y(ANGSTROM)         Z(ANGSTROM)
 *******************************************************************************
      1 T   6 C     0.000000000000E+00  2.273216832196E-20  3.331441518744E-02
      2 T   8 O     0.000000000000E+00  8.075158901762E-20  1.228815947167E+00
      3 T   7 N     0.000000000000E+00  1.144447366879E+00 -7.057905035182E-01
      4 F   7 N     0.000000000000E+00 -1.144447366879E+00 -7.057905035182E-01
      5 T   1 H     0.000000000000E+00  2.001567895689E+00 -2.059791023566E-01
      6 F   1 H     0.000000000000E+00 -2.001567895689E+00 -2.059791023566E-01
      7 T   1 H     0.000000000000E+00  1.160074243326E+00 -1.696177075303E+00
      8 F   1 H     0.000000000000E+00 -1.160074243326E+00 -1.696177075303E+00

 T = ATOM BELONGING TO THE ASYMMETRIC UNIT

 TOTAL ENERGY(HF)(AU)(   5) -2.2379591473986E+02     DE (AU)   -6.118E-05

 UPDATED TRUST RADIUS     0.200E+01

 SYMMETRY ALLOWED FORCES  (COORDINATE, FORCE)

    1  4.6263051E-04    2 -1.7023012E-04    3  1.3176496E-04    4  5.7186369E-04
    5 -6.4854705E-04    6 -1.6907224E-04    7  2.9088863E-06

 GRADIENT NORM     0.001018  GRADIENT THRESHOLD     0.500000

 EIGENVALUES OF THE ESTIMATED HESSIAN
  0.2274E-01  0.9219E-01  0.2353      0.3690       1.145       1.282    
   1.750    

 PREDICTED ENERGY CHANGE    -0.156E-05

 MAX GRADIENT      0.000649  THRESHOLD              0.000450 CONVERGED NO
 RMS GRADIENT      0.000385  THRESHOLD              0.000300 CONVERGED NO
 MAX DISPLAC.      0.005546  THRESHOLD              0.001800 CONVERGED NO
 RMS DISPLAC.      0.002932  THRESHOLD              0.001200 CONVERGED NO
 TTTTTTTTTTTTTTTTTTTTTTTTTTTTTT OPTI        TELAPSE       24.69 TCPU       24.34
 *******************************************************************************
 COORDINATE OPTIMIZATION - POINT    5
 *******************************************************************************
 ATOMS IN THE ASYMMETRIC UNIT    5 - ATOMS IN THE UNIT CELL:    8
     ATOM             X(ANGSTROM)         Y(ANGSTROM)         Z(ANGSTROM)
 *******************************************************************************
      1 T   6 C     0.000000000000E+00  2.253033345330E-20  3.442462068906E-02
      2 T   8 O     0.000000000000E+00  8.003461005931E-20  1.229723309857E+00
      3 T   7 N     0.000000000000E+00  1.143501290837E+00 -7.056321687267E-01
      4 F   7 N     0.000000000000E+00 -1.143501290837E+00 -7.056321687267E-01
      5 T   1 H     0.000000000000E+00  2.000706339873E+00 -2.071731634300E-01
      6 F   1 H     0.000000000000E+00 -2.000706339873E+00 -2.071731634300E-01
      7 T   1 H     0.000000000000E+00  1.157999116732E+00 -1.696150133116E+00
      8 F   1 H     0.000000000000E+00 -1.157999116732E+00 -1.696150133116E+00

 T = ATOM BELONGING TO THE ASYMMETRIC UNIT

 TOTAL ENERGY(HF)(AU)(   3) -2.2379591555486E+02     DE (AU)   -8.150E-07

 UPDATED TRUST RADIUS     0.200E+01

 SYMMETRY ALLOWED FORCES  (COORDINATE, FORCE)

    1 -2.9923082E-05    2  8.1438553E-05    3  1.3829506E-04    4 -6.5505528E-05
    5  1.9878051E-04    6 -5.3108042E-05    7 -2.4640467E-05

 GRADIENT NORM     0.000272  GRADIENT THRESHOLD     0.500000

 EIGENVALUES OF THE ESTIMATED HESSIAN
  0.1919E-01  0.1127      0.2599      0.3776       1.136       1.297    
   1.755    

 PREDICTED ENERGY CHANGE    -0.192E-06

 MAX GRADIENT      0.000199  THRESHOLD              0.000450 CONVERGED YES
 RMS GRADIENT      0.000103  THRESHOLD              0.000300 CONVERGED YES
 MAX DISPLAC.      0.001344  THRESHOLD              0.001800 CONVERGED YES
 RMS DISPLAC.      0.000849  THRESHOLD              0.001200 CONVERGED YES

 CONVERGENCE TESTS SATISFIED AFTER   5 ENERGY AND GRADIENT CALCULATIONS
 +++++++++++++++++++++++++++++++++++++++++++++++++++++++++++++++++++++++++++++++
 FINALRUN OPTION: RE-STARTING OPTIMIZATION
 +++++++++++++++++++++++++++++++++++++++++++++++++++++++++++++++++++++++++++++++
 TTTTTTTTTTTTTTTTTTTTTTTTTTTTTT OPTI        TELAPSE       29.43 TCPU       29.07
 *******************************************************************************
 COORDINATE OPTIMIZATION - POINT    6
 *******************************************************************************
 ATOMS IN THE ASYMMETRIC UNIT    5 - ATOMS IN THE UNIT CELL:    8
     ATOM             X(ANGSTROM)         Y(ANGSTROM)         Z(ANGSTROM)
 *******************************************************************************
      1 T   6 C     0.000000000000E+00  2.257829383222E-20  3.467064931138E-02
      2 T   8 O     0.000000000000E+00  8.020497994014E-20  1.229959899460E+00
      3 T   7 N     0.000000000000E+00  1.143612665172E+00 -7.055289565738E-01
      4 F   7 N     0.000000000000E+00 -1.143612665172E+00 -7.055289565738E-01
      5 T   1 H     0.000000000000E+00  2.001209287717E+00 -2.076521186053E-01
      6 F   1 H     0.000000000000E+00 -2.001209287717E+00 -2.076521186053E-01
      7 T   1 H     0.000000000000E+00  1.157645412046E+00 -1.696015699207E+00
      8 F   1 H     0.000000000000E+00 -1.157645412046E+00 -1.696015699207E+00

 T = ATOM BELONGING TO THE ASYMMETRIC UNIT

 REFERENCE GEOMETRY WILL BE CHANGED

 TOTAL ENERGY(HF)(AU)(   3) -2.2379591863043E+02     DE (AU)   -3.076E-06

 SYMMETRY ALLOWED FORCES  (COORDINATE, FORCE)

    1 -8.7987815E-05    2  3.4662862E-05    3 -2.8651044E-05    4  1.6598556E-05
    5  4.7993299E-05    6  4.9623407E-05    7  1.8151671E-05

 GRADIENT NORM     0.000123  GRADIENT THRESHOLD     0.500000

 HESSIAN UPDATE SKIPPED

 EIGENVALUES OF THE ESTIMATED HESSIAN
  0.1919E-01  0.1127      0.2599      0.3776       1.136       1.297    
   1.755    

 PREDICTED ENERGY CHANGE    -0.338E-07

 MAX GRADIENT      0.000088  THRESHOLD              0.000450 CONVERGED YES
 RMS GRADIENT      0.000046  THRESHOLD              0.000300 CONVERGED YES
 MAX DISPLAC.      0.001296  THRESHOLD              0.001800 CONVERGED YES
 RMS DISPLAC.      0.000636  THRESHOLD              0.001200 CONVERGED YES

 CONVERGENCE TESTS SATISFIED AFTER   6 ENERGY AND GRADIENT CALCULATIONS

 ******************************************************************
 * OPT END - CONVERGED * E(AU):  -2.237959186304E+02  POINTS    6 *
 ******************************************************************

   BAND GAP:                     17.2489  eV 


 NEIGHBORS OF THE NON-EQUIVALENT ATOMS

 N = NUMBER OF NEIGHBORS AT DISTANCE R
    ATOM  N     R/ANG      R/AU   NEIGHBORS (ATOM LABELS AND CELL INDICES)
   1 C    1     1.1953     2.2588    2 O    0 0 0
   1 C    2     1.3623     2.5743    3 N    0 0 0    4 N    0 0 0
   1 C    2     2.0158     3.8094    5 H    0 0 0    6 H    0 0 0
   1 C    2     2.0822     3.9347    7 H    0 0 0    8 H    0 0 0

   2 O    1     1.1953     2.2588    1 C    0 0 0
   2 O    2     2.2481     4.2483    3 N    0 0 0    4 N    0 0 0
   2 O    2     2.4641     4.6564    5 H    0 0 0    6 H    0 0 0
   2 O    2     3.1467     5.9463    7 H    0 0 0    8 H    0 0 0

   3 N    1     0.9906     1.8719    7 H    0 0 0
   3 N    1     0.9916     1.8739    5 H    0 0 0
   3 N    1     1.3623     2.5743    1 C    0 0 0
   3 N    1     2.2481     4.2483    2 O    0 0 0
   3 N    1     2.2872     4.3222    4 N    0 0 0
   3 N    1     2.5054     4.7345    8 H    0 0 0

   5 H    1     0.9916     1.8739    3 N    0 0 0
   5 H    1     1.7108     3.2329    7 H    0 0 0
   5 H    1     2.0158     3.8094    1 C    0 0 0
   5 H    1     2.4641     4.6564    2 O    0 0 0
   5 H    1     3.1840     6.0169    4 N    0 0 0
   5 H    1     3.4919     6.5988    8 H    0 0 0

   7 H    1     0.9906     1.8719    3 N    0 0 0
   7 H    1     1.7108     3.2329    5 H    0 0 0
   7 H    1     2.0822     3.9347    1 C    0 0 0
   7 H    1     2.3153     4.3753    8 H    0 0 0
   7 H    1     2.5054     4.7345    4 N    0 0 0
   7 H    1     3.1467     5.9463    2 O    0 0 0

 TTTTTTTTTTTTTTTTTTTTTTTTTTTTTT AFTER FIRST TELAPSE       33.93 TCPU       33.57
 MMMMMMMMMMMMMMMMMMMMMMMMMMMMMMMMMMMMMMMMMMMMMMMMMMMMMMMMMMMMMMMMMMMMMMMMMMMMMMM
     ALPHA+BETA ELECTRONS
 MULLIKEN POPULATION ANALYSIS - NO. OF ELECTRONS   32.000000

  ATOM    Z CHARGE  A.O. POPULATION

   1 C    6  4.822  1.996  0.400  0.330  0.528  0.608  0.297  0.383  0.095
                    0.021  0.028  0.035  0.071  0.011  0.020
   2 O    8  8.697  1.997  0.421  0.648  0.804  0.644  1.468  0.886  0.991
                    0.797  0.017  0.013  0.009 -0.000  0.000
   3 N    7  7.716  1.996  0.359  0.760  0.567  0.559  1.196  1.062  0.599
                    0.596  0.006  0.001  0.009  0.005  0.002
   4 N    7  7.716  1.996  0.359  0.760  0.567  0.559  1.196  1.062  0.599
                    0.596  0.006  0.001  0.009  0.005  0.002
   5 H    1  0.750  0.452  0.263  0.008  0.019  0.009
   6 H    1  0.750  0.452  0.263  0.008  0.019  0.009
   7 H    1  0.775  0.459  0.279  0.009  0.003  0.025
   8 H    1  0.775  0.459  0.279  0.009  0.003  0.025

  ATOM    Z CHARGE  SHELL POPULATION

   1 C    6  4.822  1.996  1.865  0.796  0.164
   2 O    8  8.697  1.997  2.517  4.143  0.040
   3 N    7  7.716  1.996  2.244  3.452  0.023
   4 N    7  7.716  1.996  2.244  3.452  0.023
   5 H    1  0.750  0.452  0.263  0.036
   6 H    1  0.750  0.452  0.263  0.036
   7 H    1  0.775  0.459  0.279  0.036
   8 H    1  0.775  0.459  0.279  0.036

 OVERLAP POPULATION CONDENSED TO ATOMS FOR FIRST   6 NEIGHBORS

 ATOM A   1 C    ATOM B     CELL      R(AB)/AU R(AB)/ANG    OVPOP(AB)
                  2 O    (  0  0  0)     2.259     1.195     0.673
                  3 N    (  0  0  0)     2.574     1.362     0.287
                  5 H    (  0  0  0)     3.809     2.016    -0.028
                  7 H    (  0  0  0)     3.935     2.082    -0.023

 ATOM A   2 O    ATOM B     CELL      R(AB)/AU R(AB)/ANG    OVPOP(AB)
                  1 C    (  0  0  0)     2.259     1.195     0.673
                  3 N    (  0  0  0)     4.248     2.248    -0.059
                  5 H    (  0  0  0)     4.656     2.464     0.003
                  7 H    (  0  0  0)     5.946     3.147     0.002

 ATOM A   3 N    ATOM B     CELL      R(AB)/AU R(AB)/ANG    OVPOP(AB)
                  7 H    (  0  0  0)     1.872     0.991     0.373
                  5 H    (  0  0  0)     1.874     0.992     0.374
                  1 C    (  0  0  0)     2.574     1.362     0.287
                  2 O    (  0  0  0)     4.248     2.248    -0.059
                  4 N    (  0  0  0)     4.322     2.287    -0.083
                  8 H    (  0  0  0)     4.734     2.505    -0.000

 ATOM A   5 H    ATOM B     CELL      R(AB)/AU R(AB)/ANG    OVPOP(AB)
                  3 N    (  0  0  0)     1.874     0.992     0.374
                  7 H    (  0  0  0)     3.233     1.711    -0.025
                  1 C    (  0  0  0)     3.809     2.016    -0.028
                  2 O    (  0  0  0)     4.656     2.464     0.003
                  4 N    (  0  0  0)     6.017     3.184     0.003
                  8 H    (  0  0  0)     6.599     3.492    -0.000

 ATOM A   7 H    ATOM B     CELL      R(AB)/AU R(AB)/ANG    OVPOP(AB)
                  3 N    (  0  0  0)     1.872     0.991     0.373
                  5 H    (  0  0  0)     3.233     1.711    -0.025
                  1 C    (  0  0  0)     3.935     2.082    -0.023
                  8 H    (  0  0  0)     4.375     2.315     0.001
                  4 N    (  0  0  0)     4.734     2.505    -0.000
                  2 O    (  0  0  0)     5.946     3.147     0.002
 EIGENVECTORS IN FORTRAN UNIT 10

 FINAL OPTIMIZED GEOMETRY - DIMENSIONALITY OF THE SYSTEM      0
 (NON PERIODIC DIRECTION: LATTICE PARAMETER FORMALLY SET TO 500)
 *******************************************************************************
 ATOMS IN THE ASYMMETRIC UNIT    5 - ATOMS IN THE UNIT CELL:    8
     ATOM             X(ANGSTROM)         Y(ANGSTROM)         Z(ANGSTROM)
 *******************************************************************************
      1 T   6 C     0.000000000000E+00  2.257829383222E-20  3.467064931138E-02
      2 T   8 O     0.000000000000E+00  8.020497994014E-20  1.229959899460E+00
      3 T   7 N     0.000000000000E+00  1.143612665172E+00 -7.055289565738E-01
      4 F   7 N     0.000000000000E+00 -1.143612665172E+00 -7.055289565738E-01
      5 T   1 H     0.000000000000E+00  2.001209287717E+00 -2.076521186053E-01
      6 F   1 H     0.000000000000E+00 -2.001209287717E+00 -2.076521186053E-01
      7 T   1 H     0.000000000000E+00  1.157645412046E+00 -1.696015699207E+00
      8 F   1 H     0.000000000000E+00 -1.157645412046E+00 -1.696015699207E+00

 T = ATOM BELONGING TO THE ASYMMETRIC UNIT
 INFORMATION **** fort.34 **** GEOMETRY OUTPUT FILE

 ****    4 SYMMOPS - TRANSLATORS IN FRACTIONAL UNITS
 **** MATRICES AND TRANSLATORS IN THE CRYSTALLOGRAPHIC REFERENCE FRAME
   V INV                    ROTATION MATRICES                   TRANSLATORS
   1   1  1.00  0.00  0.00  0.00  1.00  0.00  0.00  0.00  1.00  0.00  0.00  0.00
   2   2 -1.00  0.00  0.00  0.00 -1.00  0.00  0.00  0.00  1.00  0.00  0.00  0.00
   3   3 -1.00  0.00  0.00  0.00  1.00  0.00  0.00  0.00  1.00  0.00  0.00  0.00
   4   4  1.00  0.00  0.00  0.00 -1.00  0.00  0.00  0.00  1.00  0.00  0.00  0.00
 TTTTTTTTTTTTTTTTTTTTTTTTTTTTTT END         TELAPSE       33.94 TCPU       33.58
 EEEEEEEEEE TERMINATION  DATE 24 09 2020 TIME 13:58:15.9
