
         
 *******************************************************************************
 *                                                                             *
 *                               CRYSTAL23                                     *
 *                      public : 1.0.1 - October 2022                          *
 *                       HTTP://WWW.CRYSTAL.UNITO.IT                           *
 *                                                                             *
 *                              MAIN AUTHORS                                   *
 *                                                                             *
 *  R. DOVESI(1,11), V.R. SAUNDERS(2), C. ROETTI(1,11), R. ORLANDO(1,11),      *
 *  C.M. ZICOVICH-WILSON(1,3), F. PASCALE(4), B. CIVALLERI(1,11),              *
 *  K. DOLL(5), N.M. HARRISON(6), I.J. BUSH(7), Ph. D'ARCO(8),                 *
 *  M. LLUNELL(9), M. CAUSA'(10), Y. NOEL(8), L. MASCHIO(1,11), A. ERBA(1,11)  *
 *  M. RE'RAT(14), S. CASASSA(1,11), B.G. SEARLE(2), J.K. DESMARAIS(1)         *
 *                                                                             *
 *        CONTRIBUTIONS TO THE CODE HAVE ALSO BEEN GIVEN BY                    *
 *                                                                             *
 *  M. FERRABONE(1,11), M. DE LA PIERRE(1,11), M. FERRERO(1,11),               *
 *  J. BAIMA(1,11), E. ALBANESE(1,11), M.F. PEINTINGER(12), R. BAST(13),       *
 *  B. KIRTMAN(15), V. LACIVITA(1,11), R. DEMICHELIS(1,16)                     *
 *  G. BRANDEBURG(17), S. SALUSTRO(1,11), G. SANSONE(1,11)                     *
 *  M.T. RUGGIERO(18), L.E. DAGA(1), L. DONA'(1), A. COSSARD(1)                *
 *                                                                             *
 * (1) THEORETICAL CHEMISTRY GROUP - UNIVERSITA' DI TORINO - TORINO (ITALY)    *
 * (2) SCIENTIFIC COMPUTING DEPARTMENT - STFC DARESBURY (UK)                   *
 * (3) UNIVERSIDAD AUTONOMA DEL ESTADO DE MORELOS - CUERNAVACA (MEXICO)        *
 * (4) UNIVERSITE' DE LORRAINE - NANCY (FRANCE)                                *
 * (5) UNIVERSITAET STUTTGART- STUTTGART (GERMANY)                             *
 * (6) IMPERIAL COLLEGE - LONDON (UK)                                          *
 * (7) SCIENTIFIC COMPUTING DEPARTMENT - STFC RAL (UK)                         *
 * (8) UPMC - SORBONNE UNIVERSITES - PARIS (FRANCE)                            *
 * (9) UNIVERSIDAD DE BARCELONA - BARCELONA (SPAIN)                            *
 *(10) UNIVERSITA' DI NAPOLI "FEDERICO II" - NAPOLI (ITALY)                    *
 *(11) NIS - NANOSTRUCTURED INTERFACES AND SURFACES - TORINO (ITALY)           *
 *(12) MPI FUER CHEMISCHE ENERGIEKONVERSION - MUELHEIM AN DER RUHR (GERMANY)   *
 *(13) UNIVERSITY OF TROMSO - TROMSO (NORWAY)                                  *
 *(14) UNIVERSITE' DE PAU ET DES PAYS DE L'ADOUR - PAU (FRANCE)                *
 *(15) UNIVERSITY OF CALIFORNIA SANTA BARBARA - SANTA BARBARA (USA)            *
 *(16) CURTIN UNIVERSITY - PERTH (AUSTRALIA)                                   *
 *(17) UNIVERSITY COLLEGE LONDON - LONDON (UK)                                 *
 *(18) UNIVERSITY OF VERMONT - BURLINGTON (USA)                                *
 *                                                                             *
 *******************************************************************************
 EEEEEEEEEE STARTING  DATE 17 09 2024 TIME 14:11:01.3
 BERILLIUM BULK                                                                  

 CRYSTAL CALCULATION
 (INPUT ACCORDING TO THE INTERNATIONAL TABLES FOR X-RAY CRYSTALLOGRAPHY)
 CRYSTAL FAMILY                       :  HEXAGONAL   
 CRYSTAL CLASS  (GROTH - 1921)        :  DIHEXAGONAL DIPYRAMIDAL              

 SPACE GROUP (CENTROSYMMETRIC)        :  P 63/M M C      

 LATTICE PARAMETERS  (ANGSTROMS AND DEGREES) - CONVENTIONAL CELL
        A           B           C        ALPHA        BETA       GAMMA
     2.29000     2.29000     3.59000    90.00000    90.00000   120.00000


 NUMBER OF IRREDUCIBLE ATOMS IN THE CONVENTIONAL CELL:    1

 INPUT COORDINATES

 ATOM AT. N.              COORDINATES
   1   4     3.333333333330E-01  6.666666666670E-01  2.500000000000E-01

 *******************************************************************************

 << INFORMATION >>: FROM NOW ON, ALL COORDINATES REFER TO THE PRIMITIVE CELL

 *******************************************************************************

 LATTICE PARAMETERS  (ANGSTROMS AND DEGREES) - PRIMITIVE CELL
       A          B          C        ALPHA      BETA     GAMMA        VOLUME
    2.29000    2.29000    3.59000    90.00000  90.00000 120.00000     16.304071

 COORDINATES OF THE EQUIVALENT ATOMS (FRACTIONAL UNITS)

 N. ATOM EQUIV AT. N.          X                  Y                  Z

   1   1   1    4 BE    3.33333333333E-01 -3.33333333333E-01  2.50000000000E-01
   2   1   2    4 BE   -3.33333333333E-01  3.33333333333E-01 -2.50000000000E-01

 NUMBER OF SYMMETRY OPERATORS         :   24
 *******************************************************************************
 * GEOMETRY EDITING - INPUT COORDINATES ARE GIVEN IN ANGSTROM         
 *******************************************************************************

 GEOMETRY NOW FULLY CONSISTENT WITH THE GROUP
 INFORMATION **** NEW DEFAULT **** FINALRUN 4 FOR GEOMETRY OPTIMIZATIONS
 INFORMATION **** NEW DEFAULT **** OPTGEOM OPTIMIZES BOTH ATOMIC COORDINATES AND CELL PARAMETERS
 INFORMATION **** NEW DEFAULT **** TOL. ON ATOMIC DISP TO REDEFINE REF. GEOMETRY: 0.8 Angs
 INFORMATION **** NEW DEFAULT **** N POINTS TO REDEFINE REF. GEOMETRY: N OF OPT DEGS OF FREEDOM
 INFORMATION **** NEW DEFAULT **** TOL. ON ENERGY TO REDEFINE REF. GEOMETRY: 10**-3*(5*N. ATOMS)

 IMPORTANT INFORMATION:
 THE COORDINATE SYSTEM ADOPTED IN THE OPTIMIZATION IS NOT IN
 GENERAL HOMOGENEOUS UNITS. FOR THIS REASON THE GRADIENT AND 
 HESSIAN MATRIX IN TERMS OF THIS SYSTEM ARE GIVEN WITHOUT
 UNITS. FOR MORE DETAILS SEE THE MANUAL.

 *******************************************************************************
 COMBINED CELL/ATOM OPTIMIZATION CONTROL

 INITIAL TRUST RADIUS         0.50000 MAXIMUM TRUST RADIUS               4.00000
 MAXIMUM GRADIENT COMPONENT   0.00045 MAXIMUM DISPLACEMENT COMPONENT     0.00180
 R.M.S. OF GRADIENT COMPONENT 0.00030 R.M.S. OF DISPLACEMENT COMPONENTS  0.00120
 THRESHOLD ON ENERGY CHANGE 0.100E-06 EXTRAPOLATING POLYNOMIAL ORDER           2
 MAXIMUM ALLOWED NUMBER OF STEPS   -1 SORTING OF ENERGY POINTS:               NO
 ANALYTICAL  GRADIENT                 HESSIAN UPDATING                      BFGS
 STEP SIZE NUMERICAL GRADIENT 0.00100
 INITIAL HESSIAN MATRIX: SCHLEGEL MODEL 2
 *******************************************************************************


 GCALCO - MAX INDICES DIRECT LATTICE VECTOR    18    18     9
 NO.OF VECTORS CREATED 6999 STARS  372 RMAX    56.80741 BOHR

 GEOMETRY FOR WAVE FUNCTION - DIMENSIONALITY OF THE SYSTEM    3
 (NON PERIODIC DIRECTION: LATTICE PARAMETER FORMALLY SET TO 500)
 *******************************************************************************
 LATTICE PARAMETERS (ANGSTROMS AND DEGREES) - BOHR = 0.5291772083 ANGSTROM
 PRIMITIVE CELL - CENTRING CODE 1/0 VOLUME=    16.304071 - DENSITY  1.836 g/cm^3
         A              B              C           ALPHA      BETA       GAMMA 
     2.29000000     2.29000000     3.59000000    90.000000  90.000000 120.000000
 *******************************************************************************
 ATOMS IN THE ASYMMETRIC UNIT    1 - ATOMS IN THE UNIT CELL:    2
     ATOM                 X/A                 Y/B                 Z/C    
 *******************************************************************************
      1 T   4 BE    3.333333333333E-01 -3.333333333333E-01  2.500000000000E-01
      2 F   4 BE   -3.333333333333E-01  3.333333333333E-01 -2.500000000000E-01

 T = ATOM BELONGING TO THE ASYMMETRIC UNIT

 ****   24 SYMMOPS - TRANSLATORS IN FRACTIONAL UNITS
 **** MATRICES AND TRANSLATORS IN THE CRYSTALLOGRAPHIC REFERENCE FRAME
   V INV                    ROTATION MATRICES                   TRANSLATORS
   1   1  1.00  0.00  0.00  0.00  1.00  0.00  0.00  0.00  1.00  0.00  0.00  0.00
   2   2 -1.00  0.00  0.00 -0.00 -1.00  0.00  0.00  0.00  1.00  0.00  0.00  0.50
   3   4 -0.00 -1.00  0.00  1.00 -1.00  0.00  0.00  0.00  1.00  0.00  0.00  0.00
   4   3 -1.00  1.00  0.00 -1.00  0.00  0.00  0.00  0.00  1.00  0.00  0.00  0.00
   5   6  1.00 -1.00  0.00  1.00 -0.00  0.00  0.00  0.00  1.00  0.00  0.00  0.50
   6   5  0.00  1.00  0.00 -1.00  1.00  0.00  0.00  0.00  1.00  0.00  0.00  0.50
   7   7  1.00 -1.00  0.00  0.00 -1.00  0.00  0.00  0.00 -1.00  0.00  0.00  0.00
   8   8 -1.00  0.00  0.00 -1.00  1.00  0.00  0.00  0.00 -1.00  0.00  0.00  0.00
   9   9  0.00  1.00  0.00  1.00  0.00  0.00  0.00  0.00 -1.00  0.00  0.00  0.00
  10  10 -0.00 -1.00  0.00 -1.00 -0.00  0.00  0.00  0.00 -1.00  0.00  0.00  0.50
  11  11  1.00  0.00  0.00  1.00 -1.00  0.00  0.00  0.00 -1.00  0.00  0.00  0.50
  12  12 -1.00  1.00  0.00 -0.00  1.00  0.00  0.00  0.00 -1.00  0.00  0.00  0.50
  13  13 -1.00  0.00  0.00 -0.00 -1.00  0.00  0.00  0.00 -1.00  0.00  0.00  0.00
  14  14  1.00  0.00  0.00  0.00  1.00  0.00  0.00  0.00 -1.00  0.00  0.00  0.50
  15  16  0.00  1.00  0.00 -1.00  1.00  0.00  0.00  0.00 -1.00  0.00  0.00  0.00
  16  15  1.00 -1.00  0.00  1.00 -0.00  0.00  0.00  0.00 -1.00  0.00  0.00  0.00
  17  18 -1.00  1.00  0.00 -1.00  0.00  0.00  0.00  0.00 -1.00  0.00  0.00  0.50
  18  17 -0.00 -1.00  0.00  1.00 -1.00  0.00  0.00  0.00 -1.00  0.00  0.00  0.50
  19  19 -1.00  1.00  0.00 -0.00  1.00  0.00  0.00  0.00  1.00  0.00  0.00  0.00
  20  20  1.00  0.00  0.00  1.00 -1.00  0.00  0.00  0.00  1.00  0.00  0.00  0.00
  21  21 -0.00 -1.00  0.00 -1.00 -0.00  0.00  0.00  0.00  1.00  0.00  0.00  0.00
  22  22  0.00  1.00  0.00  1.00  0.00  0.00  0.00  0.00  1.00  0.00  0.00  0.50
  23  23 -1.00  0.00  0.00 -1.00  1.00  0.00  0.00  0.00  1.00  0.00  0.00  0.50
  24  24  1.00 -1.00  0.00  0.00 -1.00  0.00  0.00  0.00  1.00  0.00  0.00  0.50

 DIRECT LATTICE VECTORS CARTESIAN COMPONENTS (ANGSTROM)
          X                    Y                    Z
   0.198319817467E+01  -0.114500000000E+01   0.000000000000E+00
   0.000000000000E+00   0.229000000000E+01   0.000000000000E+00
   0.000000000000E+00   0.000000000000E+00   0.359000000000E+01


 CARTESIAN COORDINATES - PRIMITIVE CELL
 *******************************************************************************
 *      ATOM          X(ANGSTROM)         Y(ANGSTROM)         Z(ANGSTROM)
 *******************************************************************************
    1     4 BE   -1.322132116444E+00  2.313432777197E-17  8.975000000000E-01
    2     4 BE   -6.610660582221E-01 -1.145000000000E+00 -8.975000000000E-01

 *******************************************************************************
 LOCAL ATOMIC FUNCTIONS BASIS SET
 *******************************************************************************
   ATOM   X(AU)   Y(AU)   Z(AU)  N. TYPE  EXPONENT  S COEF   P COEF   D/F/G COEF
 *******************************************************************************
   1 BE  -2.498   0.000   1.696
                                  1 S  
                                         1.200E+03 1.559E-03 0.000E+00 0.000E+00
                                         4.000E+02 3.605E-03 0.000E+00 0.000E+00
                                         1.200E+02 1.977E-02 0.000E+00 0.000E+00
                                         3.200E+01 8.344E-02 0.000E+00 0.000E+00
                                         1.000E+01 2.872E-01 0.000E+00 0.000E+00
                                  2 S  
                                         3.000E+00 1.000E+00 0.000E+00 0.000E+00
                           3-     6 SP 
                                         8.500E-01 1.000E+00 1.000E+00 0.000E+00
                           7-    10 SP 
                                         2.500E-01 1.000E+00 1.000E+00 0.000E+00
   2 BE  -1.249  -2.164  -1.696
 INFORMATION **** SET_MPP **** PCRYSTAL CALCULATION
 INFORMATION **** READM2 **** NEW DEFAULT: FOCK/KS MATRIX MIXING SET TO 30 %
 INFORMATION **** READM2 **** NEW DEFAULT: FULL DIRECT SCF MODE
 INFORMATION **** READM2 **** NEW DEFAULT: COULOMB BIPOLAR BUFFER SET TO 32 Mb
 INFORMATION **** READM2 **** NEW DEFAULT: EXCHANGE BIPOLAR BUFFER SET TO 32 Mb
 INFORMATION **** MAXCYCLE **** MAX NUMBER OF SCF CYCLES SET TO          30
 INFORMATION **** PPAN ****  MULLIKEN POPULATION ANALYSIS AT THE END OF SCF
 *******************************************************************************
 N. OF ATOMS PER CELL         2  COULOMB OVERLAP TOL         (T1) 10**   -6
 NUMBER OF SHELLS             8  COULOMB PENETRATION TOL     (T2) 10**   -6
 NUMBER OF AO                20  EXCHANGE OVERLAP TOL        (T3) 10**   -6
 N. OF ELECTRONS PER CELL     8  EXCHANGE PSEUDO OVP (F(G))  (T4) 10**   -6
 CORE ELECTRONS PER CELL      4  EXCHANGE PSEUDO OVP (P(G))  (T5) 10**  -12
 N. OF SYMMETRY OPERATORS    24  POLE ORDER IN MONO ZONE                  4
 *******************************************************************************
 TYPE OF CALCULATION :  RESTRICTED CLOSED SHELL
 HARTREE-FOCK HAMILTONIAN

 CAPPA:IS1 12;IS2 12;IS3 12; K PTS MONK NET 133; SYMMOPS:K SPACE  24;G SPACE  24

 *******************************************************************************
 MAX NUMBER OF SCF CYCLES      30  CONVERGENCE ON DELTAP        10**-16
 WEIGHT OF F(I) IN F(I+1)      30% CONVERGENCE ON ENERGY        10**- 7
 SHRINK. FACT.(MONKH.)   12 12 12  NUMBER OF K POINTS IN THE IBZ    133
 SHRINKING FACTOR(GILAT NET)   24  NUMBER OF K POINTS(GILAT NET)    793
 *******************************************************************************
 *** K POINTS COORDINATES (OBLIQUE COORDINATES IN UNITS OF IS = 12)
   1-R(  0  0  0)   2-C(  1  0  0)   3-C(  2  0  0)   4-C(  3  0  0)
   5-C(  4  0  0)   6-C(  5  0  0)   7-R(  6  0  0)   8-C(  1  1  0)
   9-C(  2  1  0)  10-C(  3  1  0)  11-C(  4  1  0)  12-C(  5  1  0)
  13-C(  2  2  0)  14-C(  3  2  0)  15-C(  4  2  0)  16-C(  5  2  0)
  17-C(  3  3  0)  18-C(  4  3  0)  19-C(  4  4  0)  20-C(  0  0  1)
  21-C(  1  0  1)  22-C(  2  0  1)  23-C(  3  0  1)  24-C(  4  0  1)
  25-C(  5  0  1)  26-C(  6  0  1)  27-C(  1  1  1)  28-C(  2  1  1)
  29-C(  3  1  1)  30-C(  4  1  1)  31-C(  5  1  1)  32-C(  2  2  1)
  33-C(  3  2  1)  34-C(  4  2  1)  35-C(  5  2  1)  36-C(  3  3  1)
  37-C(  4  3  1)  38-C(  4  4  1)  39-C(  0  0  2)  40-C(  1  0  2)
  41-C(  2  0  2)  42-C(  3  0  2)  43-C(  4  0  2)  44-C(  5  0  2)
  45-C(  6  0  2)  46-C(  1  1  2)  47-C(  2  1  2)  48-C(  3  1  2)
  49-C(  4  1  2)  50-C(  5  1  2)  51-C(  2  2  2)  52-C(  3  2  2)
  53-C(  4  2  2)  54-C(  5  2  2)  55-C(  3  3  2)  56-C(  4  3  2)
  57-C(  4  4  2)  58-C(  0  0  3)  59-C(  1  0  3)  60-C(  2  0  3)
  61-C(  3  0  3)  62-C(  4  0  3)  63-C(  5  0  3)  64-C(  6  0  3)
  65-C(  1  1  3)  66-C(  2  1  3)  67-C(  3  1  3)  68-C(  4  1  3)
  69-C(  5  1  3)  70-C(  2  2  3)  71-C(  3  2  3)  72-C(  4  2  3)
  73-C(  5  2  3)  74-C(  3  3  3)  75-C(  4  3  3)  76-C(  4  4  3)
  77-C(  0  0  4)  78-C(  1  0  4)  79-C(  2  0  4)  80-C(  3  0  4)
  81-C(  4  0  4)  82-C(  5  0  4)  83-C(  6  0  4)  84-C(  1  1  4)
  85-C(  2  1  4)  86-C(  3  1  4)  87-C(  4  1  4)  88-C(  5  1  4)
  89-C(  2  2  4)  90-C(  3  2  4)  91-C(  4  2  4)  92-C(  5  2  4)
  93-C(  3  3  4)  94-C(  4  3  4)  95-C(  4  4  4)  96-C(  0  0  5)
  97-C(  1  0  5)  98-C(  2  0  5)  99-C(  3  0  5) 100-C(  4  0  5)
 101-C(  5  0  5) 102-C(  6  0  5) 103-C(  1  1  5) 104-C(  2  1  5)
 105-C(  3  1  5) 106-C(  4  1  5) 107-C(  5  1  5) 108-C(  2  2  5)
 109-C(  3  2  5) 110-C(  4  2  5) 111-C(  5  2  5) 112-C(  3  3  5)
 113-C(  4  3  5) 114-C(  4  4  5) 115-R(  0  0  6) 116-C(  1  0  6)
 117-C(  2  0  6) 118-C(  3  0  6) 119-C(  4  0  6) 120-C(  5  0  6)
 121-R(  6  0  6) 122-C(  1  1  6) 123-C(  2  1  6) 124-C(  3  1  6)
 125-C(  4  1  6) 126-C(  5  1  6) 127-C(  2  2  6) 128-C(  3  2  6)
 129-C(  4  2  6) 130-C(  5  2  6) 131-C(  3  3  6) 132-C(  4  3  6)
 133-C(  4  4  6)

 DIRECT LATTICE VECTORS COMPON. (A.U.)     RECIP. LATTICE VECTORS COMPON. (A.U.) 
        X            Y            Z              X            Y            Z
    3.7477014   -2.1637364    0.0000000      1.6765437    0.0000000    0.0000000
    0.0000000    4.3274728    0.0000000      0.8382719    1.4519295    0.0000000
    0.0000000    0.0000000    6.7841168      0.0000000    0.0000000    0.9261611

 DISK SPACE FOR EIGENVECTORS (FTN 10)      104800 REALS

 SYMMETRY ADAPTION OF THE BLOCH FUNCTIONS ENABLED
 TTTTTTTTTTTTTTTTTTTTTTTTTTTTTT gordsh1     TELAPSE        0.05 TCPU        0.05

 MATRIX SIZE: P(G)   21620, F(G)    3990, P(G) IRR    1120, F(G) IRR     479
 MAX G-VECTOR INDEX FOR 1- AND 2-ELECTRON INTEGRALS 233

 TTTTTTTTTTTTTTTTTTTTTTTTTTTTTT INPUT       TELAPSE        0.05 TCPU        0.05

 NEIGHBORS OF THE NON-EQUIVALENT ATOMS

 N = NUMBER OF NEIGHBORS AT DISTANCE R
    ATOM  N     R/ANG      R/AU   NEIGHBORS (ATOM LABELS AND CELL INDICES)
   1 BE   6     2.2294     4.2129    2 BE   0 0 0    2 BE  -1 0 0    2 BE   0 1 0
                                     2 BE   0 0 1    2 BE  -1 0 1    2 BE   0 1 1
   1 BE   6     2.2900     4.3275    1 BE  -1-1 0    1 BE   1 1 0    1 BE  -1 0 0
                                     1 BE   1 0 0    1 BE   0-1 0    1 BE   0 1 0
   1 BE   6     3.1960     6.0395    2 BE   1 1 0    2 BE  -1-1 0    2 BE  -1 1 0
                                     2 BE   1 1 1    2 BE  -1-1 1    2 BE  -1 1 1
   1 BE   2     3.5900     6.7841    1 BE   0 0-1    1 BE   0 0 1
   1 BE  12     3.9317     7.4298    2 BE   1 0 0    2 BE   0-1 0    2 BE  -2-1 0
                                     2 BE   1 2 0    2 BE   1 0 1    2 BE   0-1 1
                                     2 BE  -2 0 0    2 BE   0 2 0    2 BE  -2-1 1
                                     2 BE   1 2 1    2 BE  -2 0 1    2 BE   0 2 1
   1 BE   6     3.9664     7.4954    1 BE  -2-1 0    1 BE   2 1 0    1 BE  -1-2 0
                                     1 BE   1 2 0    1 BE  -1 1 0    1 BE   1-1 0


 SYMMETRY ALLOWED ELASTIC DISTORTION 1
  0.5773503  0.0000000  0.0000000
  0.0000000  0.5773503  0.0000000
  0.0000000  0.0000000  0.5773503

 SYMMETRY ALLOWED ELASTIC DISTORTION 2
  0.4082483  0.0000000  0.0000000
  0.0000000  0.4082483  0.0000000
  0.0000000  0.0000000 -0.8164966

 THERE ARE NO SYMMETRY ALLOWED DIRECTIONS
 WARNING **** INT_SCREEN **** CELL PARAMETERS OPTIMIZATION ONLY
 TTTTTTTTTTTTTTTTTTTTTTTTTTTTTT SYMM        TELAPSE        0.06 TCPU        0.06
 TTTTTTTTTTTTTTTTTTTTTTTTTTTTTT INT_SCREEN  TELAPSE        0.06 TCPU        0.06

 *******************************************************************************
 *                             OPTIMIZATION STARTS                             *
 *******************************************************************************
 RECLASIFICATION OF INDICES FOR INTEGRAL CALC ACCORDING TO DIFFERENT CRITERIA:
           FIXDELTE                  FIXDELTX              FIXDELTN
          0.10000000E-01           0.80000000                 10
 DEFAULT MAX NUM OF POINTS  100
 *******************************************************************************

 *******************************************************************************
 CELL OPTIMIZATION - POINT    1
 TTTTTTTTTTTTTTTTTTTTTTTTTTTTTT INT_CALC    TELAPSE        0.08 TCPU        0.08

 *******************************************************************************
 BERILLIUM BULK                                                                  
 CRYSTAL - SCF - TYPE OF CALCULATION :  RESTRICTED CLOSED SHELL
 *******************************************************************************

 CAPPA:IS1 12;IS2 12;IS3 12; K PTS MONK NET 133; SYMMOPS:K SPACE  24;G SPACE  24

 TTTTTTTTTTTTTTTTTTTTTTTTTTTTTT SDIK        TELAPSE        0.09 TCPU        0.09

 AAAAAAAAAAAAAAAAAAAAAAAAAAAAAAAAAAAAAAAAAAAAAAAAAAAAAAAAAAAAAAAAAAAAAAAAAAAAAAA
         ATOMIC WAVEFUNCTION(S)


 NUCLEAR CHARGE  4.0  SYMMETRY SPECIES            S
 N. ELECTRONS    4.0  NUMBER OF PRIMITIVE GTOS    8
                      NUMBER OF CONTRACTED GTOS   4
                      NUMBER OF CLOSED SHELLS     2
                      OPEN SHELL OCCUPATION       0

  ZNUC  SCFIT    TOTAL HF ENERGY   KINETIC ENERGY   VIRIAL THEOREM ACCURACY
   4.0     6    -1.436303639E+01  1.543403361E+01 -1.930608080E+00  8.6E-07

 AAAAAAAAAAAAAAAAAAAAAAAAAAAAAAAAAAAAAAAAAAAAAAAAAAAAAAAAAAAAAAAAAAAAAAAAAAAAAAA

 CHARGE NORMALIZATION FACTOR   1.00000000
 TOTAL ATOMIC CHARGES:
   4.0000000   4.0000000
 TTTTTTTTTTTTTTTTTTTTTTTTTTTTTT MOQGAD      TELAPSE        0.09 TCPU        0.09
 TTTTTTTTTTTTTTTTTTTTTTTTTTTTTT SHELLXN     TELAPSE        0.32 TCPU        0.31
 TTTTTTTTTTTTTTTTTTTTTTTTTTTTTT MONMO3      TELAPSE        0.32 TCPU        0.32
 CYC   0 ETOT(AU) -2.909473258710E+01 DETOT -2.91E+01 tst  0.00E+00 PX  1.00E+00
 TTTTTTTTTTTTTTTTTTTTTTTTTTTTTT DIIS        TELAPSE        0.32 TCPU        0.32
 TTTTTTTTTTTTTTTTTTTTTTTTTTTTTT FDIK        TELAPSE        0.35 TCPU        0.35
 POSSIBLY CONDUCTING STATE - EFERMI(AU)  1.2750994E-01 (RES. CHARGE  1.78E-15;IT. 10)
 TTTTTTTTTTTTTTTTTTTTTTTTTTTTTT PDIG        TELAPSE        0.39 TCPU        0.39
 CHARGE NORMALIZATION FACTOR   1.00000000
 TOTAL ATOMIC CHARGES:
   4.0000000   4.0000000
 TTTTTTTTTTTTTTTTTTTTTTTTTTTTTT MOQGAD      TELAPSE        0.40 TCPU        0.39
 TTTTTTTTTTTTTTTTTTTTTTTTTTTTTT SHELLXN     TELAPSE        0.63 TCPU        0.63
 TTTTTTTTTTTTTTTTTTTTTTTTTTTTTT MONMO3      TELAPSE        0.63 TCPU        0.63
 CYC   1 ETOT(AU) -2.912711544186E+01 DETOT -3.24E-02 tst  0.00E+00 PX  1.00E+00
 TTTTTTTTTTTTTTTTTTTTTTTTTTTTTT DIIS        TELAPSE        0.65 TCPU        0.64
 DIIS TEST: 0.77745E-03 AT SCF   CYCLE   1 - MIX   30 %
 TTTTTTTTTTTTTTTTTTTTTTTTTTTTTT FDIK        TELAPSE        0.65 TCPU        0.65
 POSSIBLY CONDUCTING STATE - EFERMI(AU)  2.2911524E-02 (RES. CHARGE  3.75E-12;IT. 10)
 TTTTTTTTTTTTTTTTTTTTTTTTTTTTTT PDIG        TELAPSE        0.69 TCPU        0.69
 CHARGE NORMALIZATION FACTOR   1.00000000
 TOTAL ATOMIC CHARGES:
   4.0000000   4.0000000
 TTTTTTTTTTTTTTTTTTTTTTTTTTTTTT MOQGAD      TELAPSE        0.70 TCPU        0.69
 TTTTTTTTTTTTTTTTTTTTTTTTTTTTTT SHELLXN     TELAPSE        0.93 TCPU        0.92
 TTTTTTTTTTTTTTTTTTTTTTTTTTTTTT MONMO3      TELAPSE        0.93 TCPU        0.92
 CYC   2 ETOT(AU) -2.922172295905E+01 DETOT -9.46E-02 tst  2.85E-02 PX  4.76E-01
 TTTTTTTTTTTTTTTTTTTTTTTTTTTTTT DIIS        TELAPSE        0.94 TCPU        0.93
 DIIS TEST: 0.50158E-03 AT SCF   CYCLE   2 - DIIS ACTIVE - HISTORY:     2 CYCLES
 TTTTTTTTTTTTTTTTTTTTTTTTTTTTTT FDIK        TELAPSE        0.95 TCPU        0.94
 POSSIBLY CONDUCTING STATE - EFERMI(AU) -6.7821627E-02 (RES. CHARGE  9.87E-12;IT. 10)
 TTTTTTTTTTTTTTTTTTTTTTTTTTTTTT PDIG        TELAPSE        0.98 TCPU        0.97
 CHARGE NORMALIZATION FACTOR   1.00000000
 TOTAL ATOMIC CHARGES:
   4.0000000   4.0000000
 TTTTTTTTTTTTTTTTTTTTTTTTTTTTTT MOQGAD      TELAPSE        0.98 TCPU        0.98
 TTTTTTTTTTTTTTTTTTTTTTTTTTTTTT SHELLXN     TELAPSE        1.21 TCPU        1.20
 TTTTTTTTTTTTTTTTTTTTTTTTTTTTTT MONMO3      TELAPSE        1.21 TCPU        1.20
 CYC   3 ETOT(AU) -2.925287365766E+01 DETOT -3.12E-02 tst  1.48E-02 PX  2.43E-01
 TTTTTTTTTTTTTTTTTTTTTTTTTTTTTT DIIS        TELAPSE        1.22 TCPU        1.21
 DIIS TEST: 0.16077E-03 AT SCF   CYCLE   3 - DIIS ACTIVE - HISTORY:     3 CYCLES
 TTTTTTTTTTTTTTTTTTTTTTTTTTTTTT FDIK        TELAPSE        1.23 TCPU        1.22
 POSSIBLY CONDUCTING STATE - EFERMI(AU) -8.6939870E-02 (RES. CHARGE  3.20E-12;IT. 12)
 TTTTTTTTTTTTTTTTTTTTTTTTTTTTTT PDIG        TELAPSE        1.27 TCPU        1.26
 CHARGE NORMALIZATION FACTOR   1.00000000
 TOTAL ATOMIC CHARGES:
   4.0000000   4.0000000
 TTTTTTTTTTTTTTTTTTTTTTTTTTTTTT MOQGAD      TELAPSE        1.27 TCPU        1.26
 TTTTTTTTTTTTTTTTTTTTTTTTTTTTTT SHELLXN     TELAPSE        1.49 TCPU        1.48
 TTTTTTTTTTTTTTTTTTTTTTTTTTTTTT MONMO3      TELAPSE        1.50 TCPU        1.48
 CYC   4 ETOT(AU) -2.925607270564E+01 DETOT -3.20E-03 tst  2.77E-03 PX  6.13E-02
 TTTTTTTTTTTTTTTTTTTTTTTTTTTTTT DIIS        TELAPSE        1.51 TCPU        1.49
 DIIS TEST: 0.31617E-04 AT SCF   CYCLE   4 - DIIS ACTIVE - HISTORY:     4 CYCLES
 TTTTTTTTTTTTTTTTTTTTTTTTTTTTTT FDIK        TELAPSE        1.52 TCPU        1.50
 POSSIBLY CONDUCTING STATE - EFERMI(AU) -1.0452510E-01 (RES. CHARGE  1.24E-11;IT. 12)
 TTTTTTTTTTTTTTTTTTTTTTTTTTTTTT PDIG        TELAPSE        1.55 TCPU        1.54
 CHARGE NORMALIZATION FACTOR   1.00000000
 TOTAL ATOMIC CHARGES:
   4.0000000   4.0000000
 TTTTTTTTTTTTTTTTTTTTTTTTTTTTTT MOQGAD      TELAPSE        1.55 TCPU        1.54
 TTTTTTTTTTTTTTTTTTTTTTTTTTTTTT SHELLXN     TELAPSE        1.78 TCPU        1.76
 TTTTTTTTTTTTTTTTTTTTTTTTTTTTTT MONMO3      TELAPSE        1.78 TCPU        1.76
 CYC   5 ETOT(AU) -2.925659848952E+01 DETOT -5.26E-04 tst  6.09E-04 PX  3.77E-02
 TTTTTTTTTTTTTTTTTTTTTTTTTTTTTT DIIS        TELAPSE        1.79 TCPU        1.77
 DIIS TEST: 0.51457E-05 AT SCF   CYCLE   5 - DIIS ACTIVE - HISTORY:     5 CYCLES
 TTTTTTTTTTTTTTTTTTTTTTTTTTTTTT FDIK        TELAPSE        1.80 TCPU        1.78
 POSSIBLY CONDUCTING STATE - EFERMI(AU) -1.0313476E-01 (RES. CHARGE  4.49E-11;IT.  8)
 TTTTTTTTTTTTTTTTTTTTTTTTTTTTTT PDIG        TELAPSE        1.83 TCPU        1.81
 CHARGE NORMALIZATION FACTOR   1.00000000
 TOTAL ATOMIC CHARGES:
   4.0000000   4.0000000
 TTTTTTTTTTTTTTTTTTTTTTTTTTTTTT MOQGAD      TELAPSE        1.83 TCPU        1.82
 TTTTTTTTTTTTTTTTTTTTTTTTTTTTTT SHELLXN     TELAPSE        2.06 TCPU        2.04
 TTTTTTTTTTTTTTTTTTTTTTTTTTTTTT MONMO3      TELAPSE        2.06 TCPU        2.04
 CYC   6 ETOT(AU) -2.925662308279E+01 DETOT -2.46E-05 tst  6.25E-05 PX  2.92E-03
 TTTTTTTTTTTTTTTTTTTTTTTTTTTTTT DIIS        TELAPSE        2.07 TCPU        2.05
 DIIS TEST: 0.23994E-06 AT SCF   CYCLE   6 - DIIS ACTIVE - HISTORY:     6 CYCLES
 TTTTTTTTTTTTTTTTTTTTTTTTTTTTTT FDIK        TELAPSE        2.08 TCPU        2.06
 POSSIBLY CONDUCTING STATE - EFERMI(AU) -1.0315132E-01 (RES. CHARGE  1.39E-10;IT. 10)
 TTTTTTTTTTTTTTTTTTTTTTTTTTTTTT PDIG        TELAPSE        2.12 TCPU        2.09
 CHARGE NORMALIZATION FACTOR   1.00000000
 TOTAL ATOMIC CHARGES:
   4.0000000   4.0000000
 TTTTTTTTTTTTTTTTTTTTTTTTTTTTTT MOQGAD      TELAPSE        2.12 TCPU        2.10
 TTTTTTTTTTTTTTTTTTTTTTTTTTTTTT SHELLXN     TELAPSE        2.34 TCPU        2.32
 TTTTTTTTTTTTTTTTTTTTTTTTTTTTTT MONMO3      TELAPSE        2.34 TCPU        2.32
 CYC   7 ETOT(AU) -2.925662337537E+01 DETOT -2.93E-07 tst  9.81E-07 PX  8.68E-05
 TTTTTTTTTTTTTTTTTTTTTTTTTTTTTT DIIS        TELAPSE        2.35 TCPU        2.33
 DIIS TEST: 0.19421E-08 AT SCF   CYCLE   7 - DIIS ACTIVE - HISTORY:     7 CYCLES
 TTTTTTTTTTTTTTTTTTTTTTTTTTTTTT FDIK        TELAPSE        2.36 TCPU        2.34
 POSSIBLY CONDUCTING STATE - EFERMI(AU) -1.0306987E-01 (RES. CHARGE  4.13E-10;IT.  6)
 TTTTTTTTTTTTTTTTTTTTTTTTTTTTTT PDIG        TELAPSE        2.40 TCPU        2.37
 CHARGE NORMALIZATION FACTOR   1.00000000
 TOTAL ATOMIC CHARGES:
   4.0000000   4.0000000
 TTTTTTTTTTTTTTTTTTTTTTTTTTTTTT MOQGAD      TELAPSE        2.40 TCPU        2.37
 TTTTTTTTTTTTTTTTTTTTTTTTTTTTTT SHELLXN     TELAPSE        2.62 TCPU        2.60
 TTTTTTTTTTTTTTTTTTTTTTTTTTTTTT MONMO3      TELAPSE        2.62 TCPU        2.60
 CYC   8 ETOT(AU) -2.925662526755E+01 DETOT -1.89E-06 tst  1.01E-07 PX  1.85E-04
 TTTTTTTTTTTTTTTTTTTTTTTTTTTTTT DIIS        TELAPSE        2.64 TCPU        2.61
 DIIS TEST: 0.10185E-09 AT SCF   CYCLE   8 - DIIS ACTIVE - HISTORY:     8 CYCLES
 TTTTTTTTTTTTTTTTTTTTTTTTTTTTTT FDIK        TELAPSE        2.65 TCPU        2.62
 POSSIBLY CONDUCTING STATE - EFERMI(AU) -1.0302770E-01 (RES. CHARGE  1.10E-10;IT.  6)
 TTTTTTTTTTTTTTTTTTTTTTTTTTTTTT PDIG        TELAPSE        2.68 TCPU        2.65
 CHARGE NORMALIZATION FACTOR   1.00000000
 TOTAL ATOMIC CHARGES:
   4.0000000   4.0000000
 TTTTTTTTTTTTTTTTTTTTTTTTTTTTTT MOQGAD      TELAPSE        2.68 TCPU        2.65
 TTTTTTTTTTTTTTTTTTTTTTTTTTTTTT SHELLXN     TELAPSE        2.90 TCPU        2.88
 TTTTTTTTTTTTTTTTTTTTTTTTTTTTTT MONMO3      TELAPSE        2.90 TCPU        2.88
 CYC   9 ETOT(AU) -2.925662552940E+01 DETOT -2.62E-07 tst  2.78E-09 PX  5.15E-05
 TTTTTTTTTTTTTTTTTTTTTTTTTTTTTT DIIS        TELAPSE        2.92 TCPU        2.89
 DIIS TEST: 0.40147E-11 AT SCF   CYCLE   9 - DIIS ACTIVE - HISTORY:     9 CYCLES
 TTTTTTTTTTTTTTTTTTTTTTTTTTTTTT FDIK        TELAPSE        2.93 TCPU        2.90
 POSSIBLY CONDUCTING STATE - EFERMI(AU) -1.0301124E-01 (RES. CHARGE  1.67E-11;IT.  6)
 TTTTTTTTTTTTTTTTTTTTTTTTTTTTTT PDIG        TELAPSE        2.96 TCPU        2.93
 CHARGE NORMALIZATION FACTOR   1.00000000
 TOTAL ATOMIC CHARGES:
   4.0000000   4.0000000
 TTTTTTTTTTTTTTTTTTTTTTTTTTTTTT MOQGAD      TELAPSE        2.96 TCPU        2.93
 TTTTTTTTTTTTTTTTTTTTTTTTTTTTTT SHELLXN     TELAPSE        3.19 TCPU        3.16
 TTTTTTTTTTTTTTTTTTTTTTTTTTTTTT MONMO3      TELAPSE        3.19 TCPU        3.16
 CYC  10 ETOT(AU) -2.925662573518E+01 DETOT -2.06E-07 tst  1.60E-09 PX  1.39E-05
 TTTTTTTTTTTTTTTTTTTTTTTTTTTTTT DIIS        TELAPSE        3.20 TCPU        3.16
 DIIS TEST: 0.16778E-12 AT SCF   CYCLE  10 - DIIS ACTIVE - HISTORY:    10 CYCLES
 TTTTTTTTTTTTTTTTTTTTTTTTTTTTTT FDIK        TELAPSE        3.21 TCPU        3.17
 POSSIBLY CONDUCTING STATE - EFERMI(AU) -1.0300655E-01 (RES. CHARGE  1.35E-12;IT.  6)
 TTTTTTTTTTTTTTTTTTTTTTTTTTTTTT PDIG        TELAPSE        3.24 TCPU        3.21
 CHARGE NORMALIZATION FACTOR   1.00000000
 TOTAL ATOMIC CHARGES:
   4.0000000   4.0000000
 TTTTTTTTTTTTTTTTTTTTTTTTTTTTTT MOQGAD      TELAPSE        3.24 TCPU        3.21
 TTTTTTTTTTTTTTTTTTTTTTTTTTTTTT SHELLXN     TELAPSE        3.47 TCPU        3.43
 TTTTTTTTTTTTTTTTTTTTTTTTTTTTTT MONMO3      TELAPSE        3.47 TCPU        3.43
 CYC  11 ETOT(AU) -2.925662583889E+01 DETOT -1.04E-07 tst  5.35E-10 PX  6.12E-06
 TTTTTTTTTTTTTTTTTTTTTTTTTTTTTT DIIS        TELAPSE        3.48 TCPU        3.44
 DIIS TEST: 0.10423E-12 AT SCF   CYCLE  11 - DIIS ACTIVE - HISTORY:    11 CYCLES
 TTTTTTTTTTTTTTTTTTTTTTTTTTTTTT FDIK        TELAPSE        3.49 TCPU        3.45
 POSSIBLY CONDUCTING STATE - EFERMI(AU) -1.0300545E-01 (RES. CHARGE  7.55E-14;IT.  6)
 TTTTTTTTTTTTTTTTTTTTTTTTTTTTTT PDIG        TELAPSE        3.52 TCPU        3.48
 CHARGE NORMALIZATION FACTOR   1.00000000
 TOTAL ATOMIC CHARGES:
   4.0000000   4.0000000
 TTTTTTTTTTTTTTTTTTTTTTTTTTTTTT MOQGAD      TELAPSE        3.52 TCPU        3.49
 TTTTTTTTTTTTTTTTTTTTTTTTTTTTTT SHELLXN     TELAPSE        3.75 TCPU        3.71
 TTTTTTTTTTTTTTTTTTTTTTTTTTTTTT MONMO3      TELAPSE        3.75 TCPU        3.71
 CYC  12 ETOT(AU) -2.925662585911E+01 DETOT -2.02E-08 tst  1.73E-11 PX  1.10E-06
 TTTTTTTTTTTTTTTTTTTTTTTTTTTTTT DIIS        TELAPSE        3.77 TCPU        3.73
 DIIS TEST: 0.71194E-13 AT SCF   CYCLE  12 - DIIS ACTIVE - HISTORY:    12 CYCLES
 TTTTTTTTTTTTTTTTTTTTTTTTTTTTTT FDIK        TELAPSE        3.78 TCPU        3.74
 POSSIBLY CONDUCTING STATE - EFERMI(AU) -1.0300436E-01 (RES. CHARGE  7.19E-14;IT.  6)
 TTTTTTTTTTTTTTTTTTTTTTTTTTTTTT PDIG        TELAPSE        3.81 TCPU        3.78
 CHARGE NORMALIZATION FACTOR   1.00000000
 TOTAL ATOMIC CHARGES:
   4.0000000   4.0000000
 TTTTTTTTTTTTTTTTTTTTTTTTTTTTTT MOQGAD      TELAPSE        3.82 TCPU        3.78
 TTTTTTTTTTTTTTTTTTTTTTTTTTTTTT SHELLXN     TELAPSE        4.04 TCPU        4.00
 +++ ENERGIES IN A.U. +++
 ::: EXT EL-POLE                                  -9.8451746954663E+01
 ::: EXT EL-SPHEROPOLE                             1.8632772013722E+00
 ::: BIELET ZONE E-E                               9.7012776584293E+01
 ::: TOTAL E-E                                     4.2430683100251E-01
 ::: TOTAL E-N + N-E                              -4.6799279034703E+01
 ::: TOTAL N-N                                    -1.2147404438226E+01
 ::: KINETIC ENERGY                                2.9265750763740E+01
 ::: TOTAL   ENERGY                               -2.9256625878186E+01
 ::: VIRIAL COEFFICIENT                            1.0001559213087E+00
 TTTTTTTTTTTTTTTTTTTTTTTTTTTTTT MONMO3      TELAPSE        4.04 TCPU        4.00
 CYC  13 ETOT(AU) -2.925662587819E+01 DETOT -1.91E-08 tst  1.58E-11 PX  1.10E-06

 == SCF ENDED - CONVERGENCE ON ENERGY      E(AU) -2.9256625878186E+01 CYCLES  13

 TOTAL ENERGY(HF)(AU)(  13) -2.9256625878186E+01 DE-1.9E-08 tst 1.6E-11 PX 1.1E-06

 *******************************************************************************
 *                             FORCE CALCULATION                               *
 *******************************************************************************

 INFORMATION **** EXCPOG **** EXCH. BIPO BUFFER LENGTH (WORDS) =      446688
 INFORMATION **** GENPOG **** BIPO BUFFER LENGTH (WORDS) =       34600
 TTTTTTTTTTTTTTTTTTTTTTTTTTTTTT SHELXG      TELAPSE        6.13 TCPU        6.08

 CARTESIAN FORCES IN HARTREE/BOHR (ANALYTICAL)
   ATOM                     X                   Y                   Z
   1   4             2.778100535010E-16  1.250030638308E-16  1.191640316832E-15
   2   4            -2.658819830441E-16 -1.205549932243E-16 -1.191640316832E-15

 RESULTANT FORCE     1.192807045682E-17  4.448070606518E-18  0.000000000000E+00

 ATOMIC PART

 THERE ARE NO SYMMETRY ALLOWED DIRECTIONS

 CELL PART

 GRADIENT WITH RESPECT TO THE CELL PARAMETER IN HARTREE/BOHR
ORDER: -D/DA1X, -D/DA1Y, -D/DA1Z
       -D/DA2X, -D/DA2Y, -D/DA2Z
       -D/DA3X, -D/DA3Y, -D/DA3Z
 -0.601139544841E-02  0.265370021177E-16  0.180611975401E-16
 -0.300569772420E-02 -0.520602117051E-02  0.989266799336E-16
  0.234193957509E-16  0.318998931001E-16 -0.466644347850E-02

STRESS TENSOR, IN HARTREE/BOHR^3:
ORDER: 11 12 13
       21 22 23
       31 32 33
  0.204761182473E-03 -0.203561918087E-16 -0.144403044869E-17
 -0.903907916150E-18  0.204761182473E-03 -0.196693447758E-17
 -0.615203607372E-18 -0.353575740011E-17  0.287731013290E-03

STRESS TENSOR DOES NOT CORRESPOND TO
HYDROSTATIC PRESSURE, NO PRESSURE COMPUTED!

 SYMMETRY ALLOWED FORCES (ANALYTICAL) (DIRECTION, FORCE)

    1 -4.4291731E-02    2  7.4536197E-03
 TTTTTTTTTTTTTTTTTTTTTTTTTTTTTT TOTGRA      TELAPSE        6.16 TCPU        6.12
 INFORMATION **** optc001 **** GEOMETRY OUTPUT FILE
 CLASSICAL MODEL (SCHLEGEL) USED AS INITIAL HESSIAN MATRIX
 REFERENCE GEOMETRY DEFINED

 MAX GRADIENT      0.044292  THRESHOLD              0.000450 CONVERGED NO
 RMS GRADIENT      0.031759  THRESHOLD              0.000300 CONVERGED NO

 GRADIENT NORM     0.044915  GRADIENT THRESHOLD     0.500000

 EIGENVALUES OF THE ESTIMATED HESSIAN
   4.967       11.21    

 INITIAL TRUST RADIUS    0.5000000000E+00

 PREDICTED ENERGY CHANGE    -0.203E-03

 INITIAL DISPLACEMENTS
 -0.008883  0.001665
 TTTTTTTTTTTTTTTTTTTTTTTTTTTTTT OPTI        TELAPSE        6.17 TCPU        6.13

 OPTOPTOPTOPTOPTOPTOPTOPTOPTOPTOPTOPTOPTOPTOPTOPTOPTOPTOPTOPTOPTOPTOPTOPTOPTOPT

 - INFORMATION ON SCF MOVED TO SCFOUT.LOG
 GEOMETRY OPTIMIZATION INFORMATION STORED IN OPTINFO.DAT

 OPTOPTOPTOPTOPTOPTOPTOPTOPTOPTOPTOPTOPTOPTOPTOPTOPTOPTOPTOPTOPTOPTOPTOPTOPTOPT
 *******************************************************************************
 CELL OPTIMIZATION - POINT    2
 *******************************************************************************
 LATTICE PARAMETERS (ANGSTROMS AND DEGREES) - BOHR = 0.5291772083 ANGSTROM
 PRIMITIVE CELL - CENTRING CODE 1/0 VOLUME=    16.054484 - DENSITY  1.864 g/cm^3
         A              B              C           ALPHA      BETA       GAMMA 
     2.27981264     2.27981264     3.56670672    90.000000  90.000000 120.000000
 *******************************************************************************
 ATOMS IN THE ASYMMETRIC UNIT    1 - ATOMS IN THE UNIT CELL:    2
     ATOM                 X/A                 Y/B                 Z/C    
 *******************************************************************************
      1 T   4 BE    3.333333333333E-01 -3.333333333333E-01  2.500000000000E-01
      2 F   4 BE   -3.333333333333E-01  3.333333333333E-01 -2.500000000000E-01

 T = ATOM BELONGING TO THE ASYMMETRIC UNIT

 TOTAL ENERGY(HF)(AU)(   7) -2.9256939800629E+01     DE (AU)   -3.139E-04

 UPDATED TRUST RADIUS     0.100E+01

 SYMMETRY ALLOWED FORCES  (COORDINATE, FORCE)

    1 -2.8248402E-02    2  4.0993203E-03

 GRADIENT NORM     0.028544  GRADIENT THRESHOLD     0.500000

 EIGENVALUES OF THE ESTIMATED HESSIAN
   1.813       11.20    

 PREDICTED ENERGY CHANGE    -0.224E-03

 MAX GRADIENT      0.028248  THRESHOLD              0.000450 CONVERGED NO
 RMS GRADIENT      0.020184  THRESHOLD              0.000300 CONVERGED NO
 MAX DISPLAC.      0.015492  THRESHOLD              0.001800 CONVERGED NO
 RMS DISPLAC.      0.011125  THRESHOLD              0.001200 CONVERGED NO
 TTTTTTTTTTTTTTTTTTTTTTTTTTTTTT OPTI        TELAPSE       10.50 TCPU       10.44
 *******************************************************************************
 CELL OPTIMIZATION - POINT    3
 *******************************************************************************
 LATTICE PARAMETERS (ANGSTROMS AND DEGREES) - BOHR = 0.5291772083 ANGSTROM
 PRIMITIVE CELL - CENTRING CODE 1/0 VOLUME=    15.627464 - DENSITY  1.915 g/cm^3
         A              B              C           ALPHA      BETA       GAMMA 
     2.26197463     2.26197463     3.52681285    90.000000  90.000000 120.000000
 *******************************************************************************
 ATOMS IN THE ASYMMETRIC UNIT    1 - ATOMS IN THE UNIT CELL:    2
     ATOM                 X/A                 Y/B                 Z/C    
 *******************************************************************************
      1 T   4 BE    3.333333333333E-01 -3.333333333333E-01  2.500000000000E-01
      2 F   4 BE   -3.333333333333E-01  3.333333333333E-01 -2.500000000000E-01

 T = ATOM BELONGING TO THE ASYMMETRIC UNIT

 TOTAL ENERGY(HF)(AU)(  23) -2.9257132143011E+01     DE (AU)   -1.923E-04

 UPDATED TRUST RADIUS     0.200E+01

 SYMMETRY ALLOWED FORCES  (COORDINATE, FORCE)

    1  3.5652573E-04    2 -1.6771270E-03

 GRADIENT NORM     0.001715  GRADIENT THRESHOLD     0.500000

 EIGENVALUES OF THE ESTIMATED HESSIAN
   1.854       11.20    

 PREDICTED ENERGY CHANGE    -0.222E-06

 MAX GRADIENT      0.001677  THRESHOLD              0.000450 CONVERGED NO
 RMS GRADIENT      0.001212  THRESHOLD              0.000300 CONVERGED NO
 MAX DISPLAC.      0.000314  THRESHOLD              0.001800 CONVERGED YES
 RMS DISPLAC.      0.000263  THRESHOLD              0.001200 CONVERGED YES
 TTTTTTTTTTTTTTTTTTTTTTTTTTTTTT OPTI        TELAPSE       19.39 TCPU       19.26
 *******************************************************************************
 CELL OPTIMIZATION - POINT    4
 *******************************************************************************
 LATTICE PARAMETERS (ANGSTROMS AND DEGREES) - BOHR = 0.5291772083 ANGSTROM
 PRIMITIVE CELL - CENTRING CODE 1/0 VOLUME=    15.635963 - DENSITY  1.914 g/cm^3
         A              B              C           ALPHA      BETA       GAMMA 
     2.26220152     2.26220152     3.52802306    90.000000  90.000000 120.000000
 *******************************************************************************
 ATOMS IN THE ASYMMETRIC UNIT    1 - ATOMS IN THE UNIT CELL:    2
     ATOM                 X/A                 Y/B                 Z/C    
 *******************************************************************************
      1 T   4 BE    3.333333333333E-01 -3.333333333333E-01  2.500000000000E-01
      2 F   4 BE   -3.333333333333E-01  3.333333333333E-01 -2.500000000000E-01

 T = ATOM BELONGING TO THE ASYMMETRIC UNIT

 TOTAL ENERGY(HF)(AU)(  10) -2.9257133393446E+01     DE (AU)   -1.250E-06

 UPDATED TRUST RADIUS     0.400E+01

 SYMMETRY ALLOWED FORCES  (COORDINATE, FORCE)

    1 -2.1039373E-04    2 -1.2989622E-03

 GRADIENT NORM     0.001316  GRADIENT THRESHOLD     0.500000

 EIGENVALUES OF THE ESTIMATED HESSIAN
   1.834       6.445    

 PREDICTED ENERGY CHANGE    -0.184E-06

 MAX GRADIENT      0.001299  THRESHOLD              0.000450 CONVERGED NO
 RMS GRADIENT      0.000930  THRESHOLD              0.000300 CONVERGED NO
 MAX DISPLAC.      0.000305  THRESHOLD              0.001800 CONVERGED YES
 RMS DISPLAC.      0.000236  THRESHOLD              0.001200 CONVERGED YES
 TTTTTTTTTTTTTTTTTTTTTTTTTTTTTT OPTI        TELAPSE       24.68 TCPU       24.51
 *******************************************************************************
 CELL OPTIMIZATION - POINT    5
 *******************************************************************************
 LATTICE PARAMETERS (ANGSTROMS AND DEGREES) - BOHR = 0.5291772083 ANGSTROM
 PRIMITIVE CELL - CENTRING CODE 1/0 VOLUME=    15.639605 - DENSITY  1.914 g/cm^3
         A              B              C           ALPHA      BETA       GAMMA 
     2.26209569     2.26209569     3.52917497    90.000000  90.000000 120.000000
 *******************************************************************************
 ATOMS IN THE ASYMMETRIC UNIT    1 - ATOMS IN THE UNIT CELL:    2
     ATOM                 X/A                 Y/B                 Z/C    
 *******************************************************************************
      1 T   4 BE    3.333333333333E-01 -3.333333333333E-01  2.500000000000E-01
      2 F   4 BE   -3.333333333333E-01  3.333333333333E-01 -2.500000000000E-01

 T = ATOM BELONGING TO THE ASYMMETRIC UNIT

 TOTAL ENERGY(HF)(AU)(  10) -2.9257134441887E+01     DE (AU)   -1.048E-06

 UPDATED TRUST RADIUS     0.400E+01

 SYMMETRY ALLOWED FORCES  (COORDINATE, FORCE)

    1 -4.8489571E-04    2 -7.8785009E-04

 GRADIENT NORM     0.000925  GRADIENT THRESHOLD     0.500000

 EIGENVALUES OF THE ESTIMATED HESSIAN
   1.727       3.589    

 PREDICTED ENERGY CHANGE    -0.170E-06

 MAX GRADIENT      0.000788  THRESHOLD              0.000450 CONVERGED NO
 RMS GRADIENT      0.000654  THRESHOLD              0.000300 CONVERGED NO
 MAX DISPLAC.      0.000383  THRESHOLD              0.001800 CONVERGED YES
 RMS DISPLAC.      0.000276  THRESHOLD              0.001200 CONVERGED YES
 TTTTTTTTTTTTTTTTTTTTTTTTTTTTTT OPTI        TELAPSE       30.52 TCPU       30.31
 *******************************************************************************
 CELL OPTIMIZATION - POINT    6
 *******************************************************************************
 LATTICE PARAMETERS (ANGSTROMS AND DEGREES) - BOHR = 0.5291772083 ANGSTROM
 PRIMITIVE CELL - CENTRING CODE 1/0 VOLUME=    15.637530 - DENSITY  1.914 g/cm^3
         A              B              C           ALPHA      BETA       GAMMA 
     2.26164169     2.26164169     3.53012359    90.000000  90.000000 120.000000
 *******************************************************************************
 ATOMS IN THE ASYMMETRIC UNIT    1 - ATOMS IN THE UNIT CELL:    2
     ATOM                 X/A                 Y/B                 Z/C    
 *******************************************************************************
      1 T   4 BE    3.333333333333E-01 -3.333333333333E-01  2.500000000000E-01
      2 F   4 BE   -3.333333333333E-01  3.333333333333E-01 -2.500000000000E-01

 T = ATOM BELONGING TO THE ASYMMETRIC UNIT

 TOTAL ENERGY(HF)(AU)(   9) -2.9257135281501E+01     DE (AU)   -8.396E-07

 UPDATED TRUST RADIUS     0.400E+01

 SYMMETRY ALLOWED FORCES  (COORDINATE, FORCE)

    1 -3.8378225E-04    2 -1.7042175E-04

 GRADIENT NORM     0.000420  GRADIENT THRESHOLD     0.500000

 EIGENVALUES OF THE ESTIMATED HESSIAN
   1.597       2.797    

 PREDICTED ENERGY CHANGE    -0.405E-07

 MAX GRADIENT      0.000384  THRESHOLD              0.000450 CONVERGED YES
 RMS GRADIENT      0.000297  THRESHOLD              0.000300 CONVERGED YES
 MAX DISPLAC.      0.000154  THRESHOLD              0.001800 CONVERGED YES
 RMS DISPLAC.      0.000142  THRESHOLD              0.001200 CONVERGED YES

 CONVERGENCE TESTS SATISFIED AFTER   6 ENERGY AND GRADIENT CALCULATIONS
 +++++++++++++++++++++++++++++++++++++++++++++++++++++++++++++++++++++++++++++++
 FINALRUN OPTION: RE-STARTING OPTIMIZATION
 +++++++++++++++++++++++++++++++++++++++++++++++++++++++++++++++++++++++++++++++
 TTTTTTTTTTTTTTTTTTTTTTTTTTTTTT OPTI        TELAPSE       36.19 TCPU       35.95
 *******************************************************************************
 CELL OPTIMIZATION - POINT    7
 *******************************************************************************
 LATTICE PARAMETERS (ANGSTROMS AND DEGREES) - BOHR = 0.5291772083 ANGSTROM
 PRIMITIVE CELL - CENTRING CODE 1/0 VOLUME=    15.633361 - DENSITY  1.915 g/cm^3
         A              B              C           ALPHA      BETA       GAMMA 
     2.26132233     2.26132233     3.53017933    90.000000  90.000000 120.000000
 *******************************************************************************
 ATOMS IN THE ASYMMETRIC UNIT    1 - ATOMS IN THE UNIT CELL:    2
     ATOM                 X/A                 Y/B                 Z/C    
 *******************************************************************************
      1 T   4 BE    3.333333333333E-01 -3.333333333333E-01  2.500000000000E-01
      2 F   4 BE   -3.333333333333E-01  3.333333333333E-01 -2.500000000000E-01

 T = ATOM BELONGING TO THE ASYMMETRIC UNIT

 REFERENCE GEOMETRY WILL BE CHANGED

 TOTAL ENERGY(HF)(AU)(   5) -2.9257217902757E+01     DE (AU)   -8.262E-05

 SYMMETRY ALLOWED FORCES  (COORDINATE, FORCE)

    1  2.3470654E-04    2 -5.9911549E-05

 GRADIENT NORM     0.000242  GRADIENT THRESHOLD     0.500000

 HESSIAN UPDATE SKIPPED

 EIGENVALUES OF THE ESTIMATED HESSIAN
   1.597       2.797    

 PREDICTED ENERGY CHANGE    -0.105E-07

 MAX GRADIENT      0.000235  THRESHOLD              0.000450 CONVERGED YES
 RMS GRADIENT      0.000171  THRESHOLD              0.000300 CONVERGED YES
 MAX DISPLAC.      0.000084  THRESHOLD              0.001800 CONVERGED YES
 RMS DISPLAC.      0.000061  THRESHOLD              0.001200 CONVERGED YES

 CONVERGENCE TESTS SATISFIED AFTER   7 ENERGY AND GRADIENT CALCULATIONS

 ******************************************************************
 * OPT END - CONVERGED * E(AU):  -2.925721790276E+01  POINTS    7 *
 ******************************************************************

   FERMI ENERGY:                 -1.0455212E-01 Ha 


 NEIGHBORS OF THE NON-EQUIVALENT ATOMS

 N = NUMBER OF NEIGHBORS AT DISTANCE R
    ATOM  N     R/ANG      R/AU   NEIGHBORS (ATOM LABELS AND CELL INDICES)
   1 BE   6     2.1955     4.1488    2 BE   0 0 0    2 BE  -1 0 0    2 BE   0 1 0
                                     2 BE   0 0 1    2 BE  -1 0 1    2 BE   0 1 1
   1 BE   6     2.2613     4.2733    1 BE  -1-1 0    1 BE   1 1 0    1 BE  -1 0 0
                                     1 BE   1 0 0    1 BE   0-1 0    1 BE   0 1 0
   1 BE   6     3.1518     5.9560    2 BE   1 1 0    2 BE  -1-1 0    2 BE  -1 1 0
                                     2 BE   1 1 1    2 BE  -1-1 1    2 BE  -1 1 1
   1 BE   2     3.5302     6.6711    1 BE   0 0-1    1 BE   0 0 1
   1 BE  12     3.8791     7.3304    2 BE   1 0 0    2 BE   0-1 0    2 BE  -2-1 0
                                     2 BE   1 2 0    2 BE   1 0 1    2 BE   0-1 1
                                     2 BE  -2 0 0    2 BE   0 2 0    2 BE  -2-1 1
                                     2 BE   1 2 1    2 BE  -2 0 1    2 BE   0 2 1
   1 BE   6     3.9167     7.4015    1 BE  -2-1 0    1 BE   2 1 0    1 BE  -1-2 0
                                     1 BE   1 2 0    1 BE  -1 1 0    1 BE   1-1 0

 TTTTTTTTTTTTTTTTTTTTTTTTTTTTTT AFTER FIRST TELAPSE       41.17 TCPU       40.91
 MMMMMMMMMMMMMMMMMMMMMMMMMMMMMMMMMMMMMMMMMMMMMMMMMMMMMMMMMMMMMMMMMMMMMMMMMMMMMMM
     ALPHA+BETA ELECTRONS
 MULLIKEN POPULATION ANALYSIS - NO. OF ELECTRONS    8.000000

  ATOM    Z CHARGE  A.O. POPULATION

   1 BE   4  4.000  0.621  1.018  0.325  0.042  0.042  0.046  0.624  0.425
                    0.425  0.432
   2 BE   4  4.000  0.621  1.018  0.325  0.042  0.042  0.046  0.624  0.425
                    0.425  0.432

  ATOM    Z CHARGE  SHELL POPULATION

   1 BE   4  4.000  0.621  1.018  0.455  1.906
   2 BE   4  4.000  0.621  1.018  0.455  1.906

 OVERLAP POPULATION CONDENSED TO ATOMS FOR FIRST   6 NEIGHBORS

 ATOM A   1 BE   ATOM B     CELL      R(AB)/AU R(AB)/ANG    OVPOP(AB)
                  2 BE   (  0  0  0)     4.149     2.195     0.102
                  1 BE   ( -1 -1  0)     4.273     2.261     0.076
                  2 BE   (  1  1  0)     5.956     3.152     0.001
                  1 BE   (  0  0 -1)     6.671     3.530    -0.000
                  2 BE   (  1  0  0)     7.330     3.879    -0.001
                  1 BE   ( -2 -1  0)     7.402     3.917    -0.001
 WARNING **** iordo **** not allocated - eigenvector printing removed
 EIGENVECTORS IN FORTRAN UNIT 10

 FINAL OPTIMIZED GEOMETRY - DIMENSIONALITY OF THE SYSTEM      3
 (NON PERIODIC DIRECTION: LATTICE PARAMETER FORMALLY SET TO 500)
 *******************************************************************************
 LATTICE PARAMETERS (ANGSTROMS AND DEGREES) - BOHR = 0.5291772083 ANGSTROM
 PRIMITIVE CELL - CENTRING CODE 1/0 VOLUME=    15.633361 - DENSITY  1.915 g/cm^3
         A              B              C           ALPHA      BETA       GAMMA 
     2.26132233     2.26132233     3.53017933    90.000000  90.000000 120.000000
 *******************************************************************************
 ATOMS IN THE ASYMMETRIC UNIT    1 - ATOMS IN THE UNIT CELL:    2
     ATOM                 X/A                 Y/B                 Z/C    
 *******************************************************************************
      1 T   4 BE    3.333333333333E-01 -3.333333333333E-01  2.500000000000E-01
      2 F   4 BE   -3.333333333333E-01  3.333333333333E-01 -2.500000000000E-01

 T = ATOM BELONGING TO THE ASYMMETRIC UNIT
 INFORMATION **** fort.34 **** GEOMETRY OUTPUT FILE

 DIRECT LATTICE VECTORS CARTESIAN COMPONENTS (ANGSTROM)
          X                    Y                    Z
   0.195836258666E+01  -0.113066116658E+01   0.000000000000E+00
   0.000000000000E+00   0.226132233316E+01   0.000000000000E+00
   0.000000000000E+00   0.000000000000E+00   0.353017933331E+01


 CARTESIAN COORDINATES - PRIMITIVE CELL
 *******************************************************************************
 *      ATOM          X(ANGSTROM)         Y(ANGSTROM)         Z(ANGSTROM)
 *******************************************************************************
    1     4 BE   -1.305575057773E+00  2.284461661719E-17  8.825448333270E-01
    2     4 BE   -6.527875288865E-01 -1.130661166579E+00 -8.825448333270E-01

 ****   24 SYMMOPS - TRANSLATORS IN FRACTIONAL UNITS
 **** MATRICES AND TRANSLATORS IN THE CRYSTALLOGRAPHIC REFERENCE FRAME
   V INV                    ROTATION MATRICES                   TRANSLATORS
   1   1  1.00  0.00  0.00  0.00  1.00  0.00  0.00  0.00  1.00  0.00  0.00  0.00
   2   2 -1.00  0.00  0.00 -0.00 -1.00  0.00  0.00  0.00  1.00  0.00  0.00  0.50
   3   4 -0.00 -1.00  0.00  1.00 -1.00  0.00  0.00  0.00  1.00  0.00  0.00  0.00
   4   3 -1.00  1.00  0.00 -1.00 -0.00  0.00  0.00  0.00  1.00  0.00  0.00  0.00
   5   6  1.00 -1.00  0.00  1.00  0.00  0.00  0.00  0.00  1.00  0.00  0.00  0.50
   6   5  0.00  1.00  0.00 -1.00  1.00  0.00  0.00  0.00  1.00  0.00  0.00  0.50
   7   7  1.00 -1.00  0.00 -0.00 -1.00  0.00  0.00  0.00 -1.00  0.00  0.00  0.00
   8   8 -1.00  0.00  0.00 -1.00  1.00  0.00  0.00  0.00 -1.00  0.00  0.00  0.00
   9   9  0.00  1.00  0.00  1.00 -0.00  0.00  0.00  0.00 -1.00  0.00  0.00  0.00
  10  10 -0.00 -1.00  0.00 -1.00  0.00  0.00  0.00  0.00 -1.00  0.00  0.00  0.50
  11  11  1.00  0.00  0.00  1.00 -1.00  0.00  0.00  0.00 -1.00  0.00  0.00  0.50
  12  12 -1.00  1.00  0.00  0.00  1.00  0.00  0.00  0.00 -1.00  0.00  0.00  0.50
  13  13 -1.00  0.00  0.00 -0.00 -1.00  0.00  0.00  0.00 -1.00  0.00  0.00  0.00
  14  14  1.00  0.00  0.00  0.00  1.00  0.00  0.00  0.00 -1.00  0.00  0.00  0.50
  15  16  0.00  1.00  0.00 -1.00  1.00  0.00  0.00  0.00 -1.00  0.00  0.00  0.00
  16  15  1.00 -1.00  0.00  1.00  0.00  0.00  0.00  0.00 -1.00  0.00  0.00  0.00
  17  18 -1.00  1.00  0.00 -1.00 -0.00  0.00  0.00  0.00 -1.00  0.00  0.00  0.50
  18  17 -0.00 -1.00  0.00  1.00 -1.00  0.00  0.00  0.00 -1.00  0.00  0.00  0.50
  19  19 -1.00  1.00  0.00  0.00  1.00  0.00  0.00  0.00  1.00  0.00  0.00  0.00
  20  20  1.00  0.00  0.00  1.00 -1.00  0.00  0.00  0.00  1.00  0.00  0.00  0.00
  21  21 -0.00 -1.00  0.00 -1.00  0.00  0.00  0.00  0.00  1.00  0.00  0.00  0.00
  22  22  0.00  1.00  0.00  1.00 -0.00  0.00  0.00  0.00  1.00  0.00  0.00  0.50
  23  23 -1.00  0.00  0.00 -1.00  1.00  0.00  0.00  0.00  1.00  0.00  0.00  0.50
  24  24  1.00 -1.00  0.00 -0.00 -1.00  0.00  0.00  0.00  1.00  0.00  0.00  0.50
 TTTTTTTTTTTTTTTTTTTTTTTTTTTTTT END         TELAPSE       41.19 TCPU       40.93
 EEEEEEEEEE TERMINATION  DATE 17 09 2024 TIME 14:11:42.5
