/home/erba/Mitoli/pub/bin/Linux-ifort_openmpi_i64_clut/std/Pcrystal
/scratch/alessandro/tmp_p21604
script started on node80
MgO primitive - PBE/pob-DVZVP-rev2 - QHA
CRYSTAL
0 0 0
225
4.26844350
2
 12 0.    0.    0.
  8 0.5   0.5   0.5
QHA
END
BASISSET
POB-DZVP-REV2
DFT
PBE
END
SHRINK
8 8
TOLINTEG
8 8 8 8 16
TOLDEE
10
END
************************************************
ANOTHER DROLLERY FILLED RUN OF THE CRYSTAL CODE!
************************************************
Thu 12 Sep 2024 02:37:43 PM CEST
 PROCESS            0  OF            1  WORKING

         
 *******************************************************************************
 *                                                                             *
 *                               CRYSTAL23                                     *
 *                      public : 1.0.1 - October 2022                          *
 *                       HTTP://WWW.CRYSTAL.UNITO.IT                           *
 *                                                                             *
 *                              MAIN AUTHORS                                   *
 *                                                                             *
 *  R. DOVESI(1,11), V.R. SAUNDERS(2), C. ROETTI(1,11), R. ORLANDO(1,11),      *
 *  C.M. ZICOVICH-WILSON(1,3), F. PASCALE(4), B. CIVALLERI(1,11),              *
 *  K. DOLL(5), N.M. HARRISON(6), I.J. BUSH(7), Ph. D'ARCO(8),                 *
 *  M. LLUNELL(9), M. CAUSA'(10), Y. NOEL(8), L. MASCHIO(1,11), A. ERBA(1,11)  *
 *  M. RE'RAT(14), S. CASASSA(1,11), B.G. SEARLE(2), J.K. DESMARAIS(1)         *
 *                                                                             *
 *        CONTRIBUTIONS TO THE CODE HAVE ALSO BEEN GIVEN BY                    *
 *                                                                             *
 *  M. FERRABONE(1,11), M. DE LA PIERRE(1,11), M. FERRERO(1,11),               *
 *  J. BAIMA(1,11), E. ALBANESE(1,11), M.F. PEINTINGER(12), R. BAST(13),       *
 *  B. KIRTMAN(15), V. LACIVITA(1,11), R. DEMICHELIS(1,16)                     *
 *  G. BRANDEBURG(17), S. SALUSTRO(1,11), G. SANSONE(1,11)                     *
 *  M.T. RUGGIERO(18), L.E. DAGA(1), L. DONA'(1), A. COSSARD(1)                *
 *                                                                             *
 * (1) THEORETICAL CHEMISTRY GROUP - UNIVERSITA' DI TORINO - TORINO (ITALY)    *
 * (2) SCIENTIFIC COMPUTING DEPARTMENT - STFC DARESBURY (UK)                   *
 * (3) UNIVERSIDAD AUTONOMA DEL ESTADO DE MORELOS - CUERNAVACA (MEXICO)        *
 * (4) UNIVERSITE' DE LORRAINE - NANCY (FRANCE)                                *
 * (5) UNIVERSITAET STUTTGART- STUTTGART (GERMANY)                             *
 * (6) IMPERIAL COLLEGE - LONDON (UK)                                          *
 * (7) SCIENTIFIC COMPUTING DEPARTMENT - STFC RAL (UK)                         *
 * (8) UPMC - SORBONNE UNIVERSITES - PARIS (FRANCE)                            *
 * (9) UNIVERSIDAD DE BARCELONA - BARCELONA (SPAIN)                            *
 *(10) UNIVERSITA' DI NAPOLI "FEDERICO II" - NAPOLI (ITALY)                    *
 *(11) NIS - NANOSTRUCTURED INTERFACES AND SURFACES - TORINO (ITALY)           *
 *(12) MPI FUER CHEMISCHE ENERGIEKONVERSION - MUELHEIM AN DER RUHR (GERMANY)   *
 *(13) UNIVERSITY OF TROMSO - TROMSO (NORWAY)                                  *
 *(14) UNIVERSITE' DE PAU ET DES PAYS DE L'ADOUR - PAU (FRANCE)                *
 *(15) UNIVERSITY OF CALIFORNIA SANTA BARBARA - SANTA BARBARA (USA)            *
 *(16) CURTIN UNIVERSITY - PERTH (AUSTRALIA)                                   *
 *(17) UNIVERSITY COLLEGE LONDON - LONDON (UK)                                 *
 *(18) UNIVERSITY OF VERMONT - BURLINGTON (USA)                                *
 *                                                                             *
 *******************************************************************************
 EEEEEEEEEE STARTING  DATE 12 09 2024 TIME 14:37:43.3
 MgO primitive - PBE/pob-DVZVP-rev2 - QHA                                        

 CRYSTAL CALCULATION
 (INPUT ACCORDING TO THE INTERNATIONAL TABLES FOR X-RAY CRYSTALLOGRAPHY)
 CRYSTAL FAMILY                       :  CUBIC       
 CRYSTAL CLASS  (GROTH - 1921)        :  CUBIC HEXAKISOCTAHEDRAL              

 SPACE GROUP (CENTROSYMMETRIC)        :  F M 3 M         

 LATTICE PARAMETERS  (ANGSTROMS AND DEGREES) - CONVENTIONAL CELL
        A           B           C        ALPHA        BETA       GAMMA
     4.26844     4.26844     4.26844    90.00000    90.00000    90.00000


 NUMBER OF IRREDUCIBLE ATOMS IN THE CONVENTIONAL CELL:    2

 INPUT COORDINATES

 ATOM AT. N.              COORDINATES
   1  12     0.000000000000E+00  0.000000000000E+00  0.000000000000E+00
   2   8     5.000000000000E-01  5.000000000000E-01  5.000000000000E-01

 *******************************************************************************

 << INFORMATION >>: FROM NOW ON, ALL COORDINATES REFER TO THE PRIMITIVE CELL

 *******************************************************************************

 LATTICE PARAMETERS  (ANGSTROMS AND DEGREES) - PRIMITIVE CELL
       A          B          C        ALPHA      BETA     GAMMA        VOLUME
    3.01825    3.01825    3.01825    60.00000  60.00000  60.00000     19.442344

 COORDINATES OF THE EQUIVALENT ATOMS (FRACTIONAL UNITS)

 N. ATOM EQUIV AT. N.          X                  Y                  Z

   1   1   1   12 MG    0.00000000000E+00  0.00000000000E+00  0.00000000000E+00

   2   2   1    8 O    -5.00000000000E-01 -5.00000000000E-01 -5.00000000000E-01

 NUMBER OF SYMMETRY OPERATORS         :   48
 *******************************************************************************
 * GEOMETRY EDITING - INPUT COORDINATES ARE GIVEN IN ANGSTROM         
 *******************************************************************************

 GEOMETRY NOW FULLY CONSISTENT WITH THE GROUP
 INFORMATION **** NEW DEFAULT **** FINALRUN 4 FOR GEOMETRY OPTIMIZATIONS
 INFORMATION **** NEW DEFAULT **** OPTGEOM OPTIMIZES BOTH ATOMIC COORDINATES AND CELL PARAMETERS
 INFORMATION **** NEW DEFAULT **** TOL. ON ATOMIC DISP TO REDEFINE REF. GEOMETRY: 0.8 Angs
 INFORMATION **** NEW DEFAULT **** N POINTS TO REDEFINE REF. GEOMETRY: N OF OPT DEGS OF FREEDOM
 INFORMATION **** NEW DEFAULT **** TOL. ON ENERGY TO REDEFINE REF. GEOMETRY: 10**-3*(5*N. ATOMS)

 IMPORTANT INFORMATION:
 THE COORDINATE SYSTEM ADOPTED IN THE OPTIMIZATION IS NOT IN
 GENERAL HOMOGENEOUS UNITS. FOR THIS REASON THE GRADIENT AND 
 HESSIAN MATRIX IN TERMS OF THIS SYSTEM ARE GIVEN WITHOUT
 UNITS. FOR MORE DETAILS SEE THE MANUAL.

 INITIAL TRUST RADIUS         0.50000 MAXIMUM TRUST RADIUS               4.00000
 MAXIMUM GRADIENT COMPONENT   0.00045 MAXIMUM DISPLACEMENT COMPONENT     0.00180
 R.M.S. OF GRADIENT COMPONENT 0.00030 R.M.S. OF DISPLACEMENT COMPONENTS  0.00120
 THRESHOLD ON ENERGY CHANGE 0.100E-06 EXTRAPOLATING POLYNOMIAL ORDER           2
 MAXIMUM ALLOWED NUMBER OF STEPS   -1 SORTING OF ENERGY POINTS:               NO
 ANALYTICAL  GRADIENT                 HESSIAN UPDATING                      BFGS
 STEP SIZE NUMERICAL GRADIENT 0.00100
 INITIAL HESSIAN MATRIX: SCHLEGEL MODEL 2
 *******************************************************************************


 EOSEOSEOSEOSEOSEOSEOSEOSEOSEOSEOSEOSEOSEOSEOSEOSEOSEOSEOSEOSEOSEOSEOSEOSEOSEOS

                       EQUATION OF STATE CALCULATION

 INFORMATION **** TOLDEX **** CONVERGENCE CRITERION FOR RMS DISPLACEMENT MODIFIED  6.200000E-04
 INFORMATION **** TOLDEG **** MODIFY CONVERGENCE CRITERION FOR RMS GRADIENT  3.000000E-04
 INFORMATION **** TOLDEE **** CONVERGENCE CRITERION FOR ENERGY MODIFIED: 10**-           9

 GCALCO - MAX INDICES DIRECT LATTICE VECTOR    14    14    14
 NO.OF VECTORS CREATED 6999 STARS  105 RMAX    60.36183 BOHR

 GEOMETRY FOR WAVE FUNCTION - DIMENSIONALITY OF THE SYSTEM    3
 (NON PERIODIC DIRECTION: LATTICE PARAMETER FORMALLY SET TO 500)
 *******************************************************************************
 LATTICE PARAMETERS (ANGSTROMS AND DEGREES) - BOHR = 0.5291772083 ANGSTROM
 PRIMITIVE CELL - CENTRING CODE 5/0 VOLUME=    19.442344 - DENSITY  3.415 g/cm^3
         A              B              C           ALPHA      BETA       GAMMA 
     3.01824534     3.01824534     3.01824534    60.000000  60.000000  60.000000
 *******************************************************************************
 ATOMS IN THE ASYMMETRIC UNIT    2 - ATOMS IN THE UNIT CELL:    2
     ATOM                 X/A                 Y/B                 Z/C    
 *******************************************************************************
      1 T  12 MG    0.000000000000E+00  0.000000000000E+00  0.000000000000E+00
      2 T   8 O    -5.000000000000E-01 -5.000000000000E-01 -5.000000000000E-01

 TRANSFORMATION MATRIX PRIMITIVE-CRYSTALLOGRAPHIC CELL
 -1.0000  1.0000  1.0000  1.0000 -1.0000  1.0000  1.0000  1.0000 -1.0000

 *******************************************************************************
 CRYSTALLOGRAPHIC CELL (VOLUME=         77.76937550)
         A              B              C           ALPHA      BETA       GAMMA 
     4.26844350     4.26844350     4.26844350    90.000000  90.000000  90.000000

 COORDINATES IN THE CRYSTALLOGRAPHIC CELL
     ATOM                 X/A                 Y/B                 Z/C    
 *******************************************************************************
      1 T  12 MG    0.000000000000E+00  0.000000000000E+00  0.000000000000E+00
      2 T   8 O    -5.000000000000E-01 -5.000000000000E-01 -5.000000000000E-01

 T = ATOM BELONGING TO THE ASYMMETRIC UNIT

 ****   48 SYMMOPS - TRANSLATORS IN FRACTIONAL UNITS
 **** MATRICES AND TRANSLATORS IN THE CRYSTALLOGRAPHIC REFERENCE FRAME
   V INV                    ROTATION MATRICES                   TRANSLATORS
   1   1  1.00  0.00  0.00  0.00  1.00  0.00  0.00  0.00  1.00  0.00  0.00  0.00
   2   2  0.00  1.00  0.00  1.00  0.00  0.00 -1.00 -1.00 -1.00  0.00  0.00  0.00
   3   3 -1.00 -1.00 -1.00  0.00  0.00  1.00  0.00  1.00  0.00  0.00  0.00  0.00
   4   4  0.00  0.00  1.00 -1.00 -1.00 -1.00  1.00  0.00  0.00  0.00  0.00  0.00
   5   6  0.00  0.00  1.00  1.00  0.00  0.00  0.00  1.00  0.00  0.00  0.00  0.00
   6   5  0.00  1.00  0.00  0.00  0.00  1.00  1.00  0.00  0.00  0.00  0.00  0.00
   7   8  1.00  0.00  0.00  0.00  0.00  1.00 -1.00 -1.00 -1.00  0.00  0.00  0.00
   8   7  1.00  0.00  0.00 -1.00 -1.00 -1.00  0.00  1.00  0.00  0.00  0.00  0.00
   9  10 -1.00 -1.00 -1.00  0.00  1.00  0.00  1.00  0.00  0.00  0.00  0.00  0.00
  10   9  0.00  0.00  1.00  0.00  1.00  0.00 -1.00 -1.00 -1.00  0.00  0.00  0.00
  11  12  0.00  1.00  0.00 -1.00 -1.00 -1.00  0.00  0.00  1.00  0.00  0.00  0.00
  12  11 -1.00 -1.00 -1.00  1.00  0.00  0.00  0.00  0.00  1.00  0.00  0.00  0.00
  13  13  0.00 -1.00  0.00 -1.00  0.00  0.00  0.00  0.00 -1.00  0.00  0.00  0.00
  14  14 -1.00  0.00  0.00  0.00 -1.00  0.00  1.00  1.00  1.00  0.00  0.00  0.00
  15  16  0.00  0.00 -1.00  1.00  1.00  1.00  0.00 -1.00  0.00  0.00  0.00  0.00
  16  15  1.00  1.00  1.00  0.00  0.00 -1.00 -1.00  0.00  0.00  0.00  0.00  0.00
  17  17 -1.00  0.00  0.00  0.00  0.00 -1.00  0.00 -1.00  0.00  0.00  0.00  0.00
  18  18  0.00  0.00 -1.00  0.00 -1.00  0.00 -1.00  0.00  0.00  0.00  0.00  0.00
  19  21  0.00  0.00 -1.00 -1.00  0.00  0.00  1.00  1.00  1.00  0.00  0.00  0.00
  20  22  1.00  1.00  1.00 -1.00  0.00  0.00  0.00 -1.00  0.00  0.00  0.00  0.00
  21  19  0.00 -1.00  0.00  1.00  1.00  1.00 -1.00  0.00  0.00  0.00  0.00  0.00
  22  20  0.00 -1.00  0.00  0.00  0.00 -1.00  1.00  1.00  1.00  0.00  0.00  0.00
  23  23  1.00  1.00  1.00  0.00 -1.00  0.00  0.00  0.00 -1.00  0.00  0.00  0.00
  24  24 -1.00  0.00  0.00  1.00  1.00  1.00  0.00  0.00 -1.00  0.00  0.00  0.00
  25  25 -1.00  0.00  0.00  0.00 -1.00  0.00  0.00  0.00 -1.00  0.00  0.00  0.00
  26  26  0.00 -1.00  0.00 -1.00  0.00  0.00  1.00  1.00  1.00  0.00  0.00  0.00
  27  27  1.00  1.00  1.00  0.00  0.00 -1.00  0.00 -1.00  0.00  0.00  0.00  0.00
  28  28  0.00  0.00 -1.00  1.00  1.00  1.00 -1.00  0.00  0.00  0.00  0.00  0.00
  29  30  0.00  0.00 -1.00 -1.00  0.00  0.00  0.00 -1.00  0.00  0.00  0.00  0.00
  30  29  0.00 -1.00  0.00  0.00  0.00 -1.00 -1.00  0.00  0.00  0.00  0.00  0.00
  31  32 -1.00  0.00  0.00  0.00  0.00 -1.00  1.00  1.00  1.00  0.00  0.00  0.00
  32  31 -1.00  0.00  0.00  1.00  1.00  1.00  0.00 -1.00  0.00  0.00  0.00  0.00
  33  34  1.00  1.00  1.00  0.00 -1.00  0.00 -1.00  0.00  0.00  0.00  0.00  0.00
  34  33  0.00  0.00 -1.00  0.00 -1.00  0.00  1.00  1.00  1.00  0.00  0.00  0.00
  35  36  0.00 -1.00  0.00  1.00  1.00  1.00  0.00  0.00 -1.00  0.00  0.00  0.00
  36  35  1.00  1.00  1.00 -1.00  0.00  0.00  0.00  0.00 -1.00  0.00  0.00  0.00
  37  37  0.00  1.00  0.00  1.00  0.00  0.00  0.00  0.00  1.00  0.00  0.00  0.00
  38  38  1.00  0.00  0.00  0.00  1.00  0.00 -1.00 -1.00 -1.00  0.00  0.00  0.00
  39  40  0.00  0.00  1.00 -1.00 -1.00 -1.00  0.00  1.00  0.00  0.00  0.00  0.00
  40  39 -1.00 -1.00 -1.00  0.00  0.00  1.00  1.00  0.00  0.00  0.00  0.00  0.00
  41  41  1.00  0.00  0.00  0.00  0.00  1.00  0.00  1.00  0.00  0.00  0.00  0.00
  42  42  0.00  0.00  1.00  0.00  1.00  0.00  1.00  0.00  0.00  0.00  0.00  0.00
  43  45  0.00  0.00  1.00  1.00  0.00  0.00 -1.00 -1.00 -1.00  0.00  0.00  0.00
  44  46 -1.00 -1.00 -1.00  1.00  0.00  0.00  0.00  1.00  0.00  0.00  0.00  0.00
  45  43  0.00  1.00  0.00 -1.00 -1.00 -1.00  1.00  0.00  0.00  0.00  0.00  0.00
  46  44  0.00  1.00  0.00  0.00  0.00  1.00 -1.00 -1.00 -1.00  0.00  0.00  0.00
  47  47 -1.00 -1.00 -1.00  0.00  1.00  0.00  0.00  0.00  1.00  0.00  0.00  0.00
  48  48  1.00  0.00  0.00 -1.00 -1.00 -1.00  0.00  0.00  1.00  0.00  0.00  0.00

 DIRECT LATTICE VECTORS CARTESIAN COMPONENTS (ANGSTROM)
          X                    Y                    Z
   0.000000000000E+00   0.213422175000E+01   0.213422175000E+01
   0.213422175000E+01   0.000000000000E+00   0.213422175000E+01
   0.213422175000E+01   0.213422175000E+01   0.000000000000E+00


 CARTESIAN COORDINATES - PRIMITIVE CELL
 *******************************************************************************
 *      ATOM          X(ANGSTROM)         Y(ANGSTROM)         Z(ANGSTROM)
 *******************************************************************************
    1    12 MG    0.000000000000E+00  0.000000000000E+00  0.000000000000E+00
    2     8 O     2.134221750000E+00  2.134221750000E+00  2.134221750000E+00

 *******************************************************************************
 STARTING BASIS SET HANDLING 
 *******************************************************************************

 Loading internal basis set: POB-DZVP-REV2       

 Please cite in your publication:
 D. Vilela Oliveira, M. F. Peintinger, J. Laun, and T. Bredow, J. Comput. Chem.,
  40 (2019)                                                                     
                                                                                
                    

 *******************************************************************************
 LOCAL ATOMIC FUNCTIONS BASIS SET
 *******************************************************************************
   ATOM   X(AU)   Y(AU)   Z(AU)  N. TYPE  EXPONENT  S COEF   P COEF   D/F/G COEF
 *******************************************************************************
   1 MG   0.000   0.000   0.000
                                  1 S  
                                         4.954E+03-5.778E-03 0.000E+00 0.000E+00
                                         7.452E+02-4.312E-02 0.000E+00 0.000E+00
                                         1.692E+02-1.927E-01 0.000E+00 0.000E+00
                                         4.730E+01-4.864E-01 0.000E+00 0.000E+00
                                         1.446E+01-4.255E-01 0.000E+00 0.000E+00
                                  2 S  
                                         2.477E+01 8.796E-02 0.000E+00 0.000E+00
                                         2.494E+00-5.517E-01 0.000E+00 0.000E+00
                                         8.781E-01-5.344E-01 0.000E+00 0.000E+00
                                  3 S  
                                         3.451E-01 1.000E+00 0.000E+00 0.000E+00
                                  4 S  
                                         1.501E-01 1.000E+00 0.000E+00 0.000E+00
                           5-     7 P  
                                         9.805E+01 0.000E+00-1.448E-02 0.000E+00
                                         2.259E+01 0.000E+00-9.550E-02 0.000E+00
                                         6.839E+00 0.000E+00-3.079E-01 0.000E+00
                                         2.233E+00 0.000E+00-4.994E-01 0.000E+00
                                         7.161E-01 0.000E+00-3.150E-01 0.000E+00
                           8-    10 P  
                                         2.469E-01 0.000E+00 1.000E+00 0.000E+00
                          11-    15 D  
                                         4.148E-01 0.000E+00 0.000E+00 1.000E+00
   2 O    4.033   4.033   4.033
                                 16 S  
                                         2.266E+03-5.343E-03 0.000E+00 0.000E+00
                                         3.409E+02-3.989E-02 0.000E+00 0.000E+00
                                         7.736E+01-1.785E-01 0.000E+00 0.000E+00
                                         2.148E+01-4.643E-01 0.000E+00 0.000E+00
                                         6.659E+00-4.431E-01 0.000E+00 0.000E+00
                                 17 S  
                                         8.479E-01 1.000E+00 0.000E+00 0.000E+00
                                 18 S  
                                         2.791E-01 1.000E+00 0.000E+00 0.000E+00
                          19-    21 P  
                                         1.772E+01 0.000E+00 4.339E-02 0.000E+00
                                         3.864E+00 0.000E+00 2.309E-01 0.000E+00
                                         1.048E+00 0.000E+00 5.138E-01 0.000E+00
                          22-    24 P  
                                         2.624E-01 0.000E+00 1.000E+00 0.000E+00
                          25-    29 D  
                                         4.790E-01 0.000E+00 0.000E+00 1.000E+00

 *******************************************************************************
 FINISHED BASIS SET HANDLING 
 *******************************************************************************

 INFORMATION **** SET_MPP **** PCRYSTAL CALCULATION
 INFORMATION **** READM2 **** NEW DEFAULT: FOCK/KS MATRIX MIXING SET TO 30 %
 INFORMATION **** READM2 **** NEW DEFAULT: FULL DIRECT SCF MODE
 INFORMATION **** READM2 **** NEW DEFAULT: COULOMB BIPOLAR BUFFER SET TO 32 Mb
 INFORMATION **** READM2 **** NEW DEFAULT: EXCHANGE BIPOLAR BUFFER SET TO 32 Mb

 *******************************************************************************
 NEW DEFAULT: DFT INTEGRATION GRID INCREASED TO XLGRID
 NEW DEFAULT: DIIS ACCELERATOR ACTIVE
 USE KEYWORD NODIIS TO TURN IT OFF
 *******************************************************************************

 INFORMATION **** TOLINTEG **** COULOMB AND EXCHANGE SERIES TOLERANCES MODIFIED
 INFORMATION **** TOLDEE **** SCF TOL ON TOTAL ENERGY SET TO          10
 *******************************************************************************
 N. OF ATOMS PER CELL         2  COULOMB OVERLAP TOL         (T1) 10**   -8
 NUMBER OF SHELLS            13  COULOMB PENETRATION TOL     (T2) 10**   -8
 NUMBER OF AO                29  EXCHANGE OVERLAP TOL        (T3) 10**   20
 N. OF ELECTRONS PER CELL    20  EXCHANGE PSEUDO OVP (F(G))  (T4) 10**   20
 CORE ELECTRONS PER CELL     12  EXCHANGE PSEUDO OVP (P(G))  (T5) 10**   20
 N. OF SYMMETRY OPERATORS    48  POLE ORDER IN MONO ZONE                  4
 *******************************************************************************
 TYPE OF CALCULATION :  RESTRICTED CLOSED SHELL
 KOHN-SHAM HAMILTONIAN

 (EXCHANGE)[CORRELATION] FUNCTIONAL:(PERDEW-BURKE-ERNZERHOF)[PERDEW-BURKE-ERNZERHOF]


 CAPPA:IS1  8;IS2  8;IS3  8; K PTS MONK NET  29; SYMMOPS:K SPACE  48;G SPACE  48

 *******************************************************************************
 MAX NUMBER OF SCF CYCLES      50  CONVERGENCE ON DELTAP        10**-20
 WEIGHT OF F(I) IN F(I+1)      30% CONVERGENCE ON ENERGY        10**-10
 SHRINK. FACT.(MONKH.)    8  8  8  NUMBER OF K POINTS IN THE IBZ     29
 SHRINKING FACTOR(GILAT NET)    8  NUMBER OF K POINTS(GILAT NET)     29
 *******************************************************************************
 *** K POINTS COORDINATES (OBLIQUE COORDINATES IN UNITS OF IS =  8)
   1-R(  0  0  0)   2-C(  1  0  0)   3-C(  2  0  0)   4-C(  3  0  0)
   5-R(  4  0  0)   6-C(  1  1  0)   7-C(  2  1  0)   8-C(  3  1  0)
   9-C(  4  1  0)  10-C(  5  1  0)  11-C(  6  1  0)  12-C(  7  1  0)
  13-C(  2  2  0)  14-C(  3  2  0)  15-C(  4  2  0)  16-C(  5  2  0)
  17-C(  6  2  0)  18-C(  3  3  0)  19-C(  4  3  0)  20-C(  5  3  0)
  21-R(  4  4  0)  22-C(  3  2  1)  23-C(  4  2  1)  24-C(  5  2  1)
  25-C(  4  3  1)  26-C(  5  3  1)  27-C(  6  3  1)  28-C(  5  4  1)
  29-C(  6  4  2)

 DIRECT LATTICE VECTORS COMPON. (A.U.)     RECIP. LATTICE VECTORS COMPON. (A.U.) 
        X            Y            Z              X            Y            Z
    0.0000000    4.0330946    4.0330946     -0.7789534    0.7789534    0.7789534
    4.0330946    0.0000000    4.0330946      0.7789534   -0.7789534    0.7789534
    4.0330946    4.0330946    0.0000000      0.7789534    0.7789534   -0.7789534

 DISK SPACE FOR EIGENVECTORS (FTN 10)       46255 REALS

 SYMMETRY ADAPTION OF THE BLOCH FUNCTIONS ENABLED
 TTTTTTTTTTTTTTTTTTTTTTTTTTTTTT gordsh1     TELAPSE        0.07 TCPU        0.07

 MATRIX SIZE: P(G)   23983, F(G)   12421, P(G) IRR    1358, F(G) IRR    1358
 MAX G-VECTOR INDEX FOR 1- AND 2-ELECTRON INTEGRALS 247

 TTTTTTTTTTTTTTTTTTTTTTTTTTTTTT INPUT       TELAPSE        0.07 TCPU        0.07

 NEIGHBORS OF THE NON-EQUIVALENT ATOMS

 N = NUMBER OF NEIGHBORS AT DISTANCE R
    ATOM  N     R/ANG      R/AU   NEIGHBORS (ATOM LABELS AND CELL INDICES)
   1 MG   6     2.1342     4.0331    2 O   -1 0 0    2 O    0-1 0    2 O    0 0-1
                                     2 O   -1-1 0    2 O   -1 0-1    2 O    0-1-1
   1 MG  12     3.0182     5.7037    1 MG  -1 0 0    1 MG   1 0 0    1 MG  -1 0 1
                                     1 MG   1 0-1    1 MG  -1 1 0    1 MG   1-1 0
                                     1 MG   0-1 0    1 MG   0 1 0    1 MG   0-1 1
                                     1 MG   0 1-1    1 MG   0 0-1    1 MG   0 0 1
   1 MG   8     3.6966     6.9855    2 O    0 0 0    2 O   -1-1 1    2 O   -1 1-1
                                     2 O    1-1-1    2 O   -2 0 0    2 O    0-2 0
                                     2 O    0 0-2    2 O   -1-1-1
   1 MG   6     4.2684     8.0662    1 MG  -1-1 1    1 MG   1 1-1    1 MG  -1 1-1
                                     1 MG   1-1 1    1 MG  -1 1 1    1 MG   1-1-1
   1 MG  24     4.7723     9.0183    2 O    1 0-1    2 O   -1 0 1    2 O    1-1 0
                                     2 O   -1 1 0    2 O    0 1-1    2 O    0-1 1
                                     2 O   -2 0 1    2 O   -2 1 0    2 O    1 0-2
                                     2 O    1-2 0    2 O    0-2 1    2 O    0 1-2
                                     2 O   -2-1 1    2 O   -2 1-1    2 O   -1-2 1
                                     2 O   -1 1-2    2 O    1-1-2    2 O    1-2-1
                                     2 O   -2-1 0    2 O   -2 0-1    2 O   -1-2 0
                                     2 O   -1 0-2    2 O    0-2-1    2 O    0-1-2
   1 MG  24     5.2278     9.8790    1 MG  -2 0 1    1 MG   2 0-1    1 MG  -2 1 0
                                     1 MG   2-1 0    1 MG  -2 1 1    1 MG   2-1-1
                                     1 MG  -1-1 0    1 MG   1 1 0    1 MG  -1-1 2
                                     1 MG   1 1-2    1 MG  -1 0-1    1 MG   1 0 1
                                     1 MG  -1 0 2    1 MG   1 0-2    1 MG  -1 2-1
                                     1 MG   1-2 1    1 MG  -1 2 0    1 MG   1-2 0
                                     1 MG   0-2 1    1 MG   0 2-1    1 MG   0-1-1
                                     1 MG   0 1 1    1 MG   0-1 2    1 MG   0 1-2

   2 O    6     2.1342     4.0331    1 MG   1 0 0    1 MG   0 1 0    1 MG   0 0 1
                                     1 MG   1 1 0    1 MG   1 0 1    1 MG   0 1 1
   2 O   12     3.0182     5.7037    2 O   -1 0 0    2 O    1 0 0    2 O   -1 0 1
                                     2 O    1 0-1    2 O   -1 1 0    2 O    1-1 0
                                     2 O    0-1 0    2 O    0 1 0    2 O    0-1 1
                                     2 O    0 1-1    2 O    0 0-1    2 O    0 0 1
   2 O    8     3.6966     6.9855    1 MG   0 0 0    1 MG   1 1-1    1 MG   1-1 1
                                     1 MG  -1 1 1    1 MG   2 0 0    1 MG   0 2 0
                                     1 MG   0 0 2    1 MG   1 1 1
   2 O    6     4.2684     8.0662    2 O   -1-1 1    2 O    1 1-1    2 O   -1 1-1
                                     2 O    1-1 1    2 O   -1 1 1    2 O    1-1-1
   2 O   24     4.7723     9.0183    1 MG  -1 0 1    1 MG   1 0-1    1 MG  -1 1 0
                                     1 MG   1-1 0    1 MG   0-1 1    1 MG   0 1-1
                                     1 MG   2 0-1    1 MG   2-1 0    1 MG  -1 0 2
                                     1 MG  -1 2 0    1 MG   0 2-1    1 MG   0-1 2
                                     1 MG   2 1-1    1 MG   2-1 1    1 MG   1 2-1
                                     1 MG   1-1 2    1 MG  -1 1 2    1 MG  -1 2 1
                                     1 MG   2 1 0    1 MG   2 0 1    1 MG   1 2 0
                                     1 MG   1 0 2    1 MG   0 2 1    1 MG   0 1 2
   2 O   24     5.2278     9.8790    2 O   -2 0 1    2 O    2 0-1    2 O   -2 1 0
                                     2 O    2-1 0    2 O   -2 1 1    2 O    2-1-1
                                     2 O   -1-1 0    2 O    1 1 0    2 O   -1-1 2
                                     2 O    1 1-2    2 O   -1 0-1    2 O    1 0 1
                                     2 O   -1 0 2    2 O    1 0-2    2 O   -1 2-1
                                     2 O    1-2 1    2 O   -1 2 0    2 O    1-2 0
                                     2 O    0-2 1    2 O    0 2-1    2 O    0-1-1
                                     2 O    0 1 1    2 O    0-1 2    2 O    0 1-2


 THERE ARE NO SYMMETRY ALLOWED DIRECTIONS
 TTTTTTTTTTTTTTTTTTTTTTTTTTTTTT SYMM        TELAPSE        0.07 TCPU        0.07
 TTTTTTTTTTTTTTTTTTTTTTTTTTTTTT INT_SCREEN  TELAPSE        0.07 TCPU        0.07

 ************************************************************************
 ************************************************************************
 EOS OPTION, W.F. PERGER, B. CIVALLERI, R. DOVESI, C.M. ZICOVICH, SEPTEMBER 2010
             A. ERBA 2013 
 CONVERGENCE CRITERION FOR ENERGY, TOLDEE =   1.0000E-09
 CONVERGENCE CRITERION FOR RMS GRADIENT, TOLDEG =   3.0000E-04
 CONVERGENCE CRITERION FOR RMS DISPLACEMENT, TOLDEX =  6.2000E-04
 NUMBER OF POINTS (TOTAL) DETERMINING E-V CURVE=     6
 RANGE OF VOLUMES, IN %:     92.0000    108.0000
 ************************************************************************
 ************************************************************************
 TTTTTTTTTTTTTTTTTTTTTTTTTTTTTT gordsh1     TELAPSE        0.07 TCPU        0.07

 MATRIX SIZE: P(G)   23983, F(G)   12421, P(G) IRR    1358, F(G) IRR    1358
 MAX G-VECTOR INDEX FOR 1- AND 2-ELECTRON INTEGRALS 247

 TTTTTTTTTTTTTTTTTTTTTTTTTTTTTT INPUT       TELAPSE        0.08 TCPU        0.07

 NEIGHBORS OF THE NON-EQUIVALENT ATOMS

 N = NUMBER OF NEIGHBORS AT DISTANCE R
    ATOM  N     R/ANG      R/AU   NEIGHBORS (ATOM LABELS AND CELL INDICES)
   1 MG   6     2.1342     4.0331    2 O   -1 0 0    2 O    0-1 0    2 O    0 0-1
                                     2 O   -1-1 0    2 O   -1 0-1    2 O    0-1-1
   1 MG  12     3.0182     5.7037    1 MG  -1 0 0    1 MG   1 0 0    1 MG  -1 0 1
                                     1 MG   1 0-1    1 MG  -1 1 0    1 MG   1-1 0
                                     1 MG   0-1 0    1 MG   0 1 0    1 MG   0-1 1
                                     1 MG   0 1-1    1 MG   0 0-1    1 MG   0 0 1
   1 MG   8     3.6966     6.9855    2 O    0 0 0    2 O   -1-1 1    2 O   -1 1-1
                                     2 O    1-1-1    2 O   -2 0 0    2 O    0-2 0
                                     2 O    0 0-2    2 O   -1-1-1
   1 MG   6     4.2684     8.0662    1 MG  -1-1 1    1 MG   1 1-1    1 MG  -1 1-1
                                     1 MG   1-1 1    1 MG  -1 1 1    1 MG   1-1-1
   1 MG  24     4.7723     9.0183    2 O    1 0-1    2 O   -1 0 1    2 O    1-1 0
                                     2 O   -1 1 0    2 O    0 1-1    2 O    0-1 1
                                     2 O   -2 0 1    2 O   -2 1 0    2 O    1 0-2
                                     2 O    1-2 0    2 O    0-2 1    2 O    0 1-2
                                     2 O   -2-1 1    2 O   -2 1-1    2 O   -1-2 1
                                     2 O   -1 1-2    2 O    1-1-2    2 O    1-2-1
                                     2 O   -2-1 0    2 O   -2 0-1    2 O   -1-2 0
                                     2 O   -1 0-2    2 O    0-2-1    2 O    0-1-2
   1 MG  24     5.2278     9.8790    1 MG  -2 0 1    1 MG   2 0-1    1 MG  -2 1 0
                                     1 MG   2-1 0    1 MG  -2 1 1    1 MG   2-1-1
                                     1 MG  -1-1 0    1 MG   1 1 0    1 MG  -1-1 2
                                     1 MG   1 1-2    1 MG  -1 0-1    1 MG   1 0 1
                                     1 MG  -1 0 2    1 MG   1 0-2    1 MG  -1 2-1
                                     1 MG   1-2 1    1 MG  -1 2 0    1 MG   1-2 0
                                     1 MG   0-2 1    1 MG   0 2-1    1 MG   0-1-1
                                     1 MG   0 1 1    1 MG   0-1 2    1 MG   0 1-2

   2 O    6     2.1342     4.0331    1 MG   1 0 0    1 MG   0 1 0    1 MG   0 0 1
                                     1 MG   1 1 0    1 MG   1 0 1    1 MG   0 1 1
   2 O   12     3.0182     5.7037    2 O   -1 0 0    2 O    1 0 0    2 O   -1 0 1
                                     2 O    1 0-1    2 O   -1 1 0    2 O    1-1 0
                                     2 O    0-1 0    2 O    0 1 0    2 O    0-1 1
                                     2 O    0 1-1    2 O    0 0-1    2 O    0 0 1
   2 O    8     3.6966     6.9855    1 MG   0 0 0    1 MG   1 1-1    1 MG   1-1 1
                                     1 MG  -1 1 1    1 MG   2 0 0    1 MG   0 2 0
                                     1 MG   0 0 2    1 MG   1 1 1
   2 O    6     4.2684     8.0662    2 O   -1-1 1    2 O    1 1-1    2 O   -1 1-1
                                     2 O    1-1 1    2 O   -1 1 1    2 O    1-1-1
   2 O   24     4.7723     9.0183    1 MG  -1 0 1    1 MG   1 0-1    1 MG  -1 1 0
                                     1 MG   1-1 0    1 MG   0-1 1    1 MG   0 1-1
                                     1 MG   2 0-1    1 MG   2-1 0    1 MG  -1 0 2
                                     1 MG  -1 2 0    1 MG   0 2-1    1 MG   0-1 2
                                     1 MG   2 1-1    1 MG   2-1 1    1 MG   1 2-1
                                     1 MG   1-1 2    1 MG  -1 1 2    1 MG  -1 2 1
                                     1 MG   2 1 0    1 MG   2 0 1    1 MG   1 2 0
                                     1 MG   1 0 2    1 MG   0 2 1    1 MG   0 1 2
   2 O   24     5.2278     9.8790    2 O   -2 0 1    2 O    2 0-1    2 O   -2 1 0
                                     2 O    2-1 0    2 O   -2 1 1    2 O    2-1-1
                                     2 O   -1-1 0    2 O    1 1 0    2 O   -1-1 2
                                     2 O    1 1-2    2 O   -1 0-1    2 O    1 0 1
                                     2 O   -1 0 2    2 O    1 0-2    2 O   -1 2-1
                                     2 O    1-2 1    2 O   -1 2 0    2 O    1-2 0
                                     2 O    0-2 1    2 O    0 2-1    2 O    0-1-1
                                     2 O    0 1 1    2 O    0-1 2    2 O    0 1-2


 SYMMETRY ALLOWED ELASTIC DISTORTION 1
  0.5773503  0.0000000  0.0000000
  0.0000000  0.5773503  0.0000000
  0.0000000  0.0000000  0.5773503

 THERE ARE NO SYMMETRY ALLOWED DIRECTIONS
 WARNING **** INT_SCREEN **** CELL PARAMETERS OPTIMIZATION ONLY
 TTTTTTTTTTTTTTTTTTTTTTTTTTTTTT SYMM        TELAPSE        0.08 TCPU        0.08
 TTTTTTTTTTTTTTTTTTTTTTTTTTTTTT INT_SCREEN  TELAPSE        0.08 TCPU        0.08

 DFT PARAMETERS

     ATOM       ELECTRONS   NET CHARGE   R(ANGSTROM)
   1  12  MG     12.0000      0.0000     1.60000000
   2   8  O       8.0000      0.0000     0.74000000

 SIZE OF GRID=       1311
 TTTTTTTTTTTTTTTTTTTTTTTTTTTTTT MAKE_GRID2  TELAPSE        0.46 TCPU        0.45
 BECKE WEIGHT FUNCTION
 RADSAFE =     2.00
 TOLERANCES - DENSITY:10**- 6; POTENTIAL:10**- 9; GRID WGT:10**-14

 RADIAL INTEGRATION  - INTERVALS (POINTS,UPPER LIMIT):            1( 75,  4.0*R)

 ANGULAR INTEGRATION - INTERVALS (ACCURACY LEVEL [N. POINTS] UPPER LIMIT):
  1(  4[  86]   0.2)  2(  8[ 194]   0.5)  3( 12[ 350]   0.9)  4( 16[ 974]   3.5)
  5( 12[ 350]9999.0)
 TTTTTTTTTTTTTTTTTTTTTTTTTTTTTT INT_CALC    TELAPSE        0.48 TCPU        0.48

 *******************************************************************************
 MgO primitive - PBE/pob-DVZVP-rev2 - QHA                                        
 CRYSTAL - SCF - TYPE OF CALCULATION :  RESTRICTED CLOSED SHELL
 *******************************************************************************

 CAPPA:IS1  8;IS2  8;IS3  8; K PTS MONK NET  29; SYMMOPS:K SPACE  48;G SPACE  48

 TTTTTTTTTTTTTTTTTTTTTTTTTTTTTT SDIK        TELAPSE        0.48 TCPU        0.48

 AAAAAAAAAAAAAAAAAAAAAAAAAAAAAAAAAAAAAAAAAAAAAAAAAAAAAAAAAAAAAAAAAAAAAAAAAAAAAAA
         ATOMIC WAVEFUNCTION(S)


 NUCLEAR CHARGE 12.0  SYMMETRY SPECIES            S    P
 N. ELECTRONS   12.0  NUMBER OF PRIMITIVE GTOS   10    6
                      NUMBER OF CONTRACTED GTOS   4    2
                      NUMBER OF CLOSED SHELLS     3    1
                      OPEN SHELL OCCUPATION       0    0

  ZNUC  SCFIT    TOTAL HF ENERGY   KINETIC ENERGY   VIRIAL THEOREM ACCURACY
  12.0     9    -1.994602712E+02  1.994291603E+02 -2.000155999E+00  2.6E-06

 NUCLEAR CHARGE  8.0  SYMMETRY SPECIES            S    P
 N. ELECTRONS    8.0  NUMBER OF PRIMITIVE GTOS    7    4
                      NUMBER OF CONTRACTED GTOS   3    2
                      NUMBER OF CLOSED SHELLS     2    0
                      OPEN SHELL OCCUPATION       0    4

  ZNUC  SCFIT    TOTAL HF ENERGY   KINETIC ENERGY   VIRIAL THEOREM ACCURACY
   8.0    13    -7.471200414E+01  7.474432650E+01 -1.999567561E+00  2.0E-06

 AAAAAAAAAAAAAAAAAAAAAAAAAAAAAAAAAAAAAAAAAAAAAAAAAAAAAAAAAAAAAAAAAAAAAAAAAAAAAAA

 TTTTTTTTTTTTTTTTTTTTTTTTTTTTTT MOQGAD      TELAPSE        0.50 TCPU        0.49
 TTTTTTTTTTTTTTTTTTTTTTTTTTTTTT SHELLXN     TELAPSE        2.28 TCPU        2.28
 TTTTTTTTTTTTTTTTTTTTTTTTTTTTTT MONMO3      TELAPSE        2.30 TCPU        2.30
 NUMERICALLY INTEGRATED DENSITY     20.0000538819
 TTTTTTTTTTTTTTTTTTTTTTTTTTTTTT NUMDFT      TELAPSE        2.58 TCPU        2.57
 CYC   0 ETOT(AU) -2.751699911889E+02 DETOT -2.75E+02 tst  0.00E+00 PX  1.00E+00
 TTTTTTTTTTTTTTTTTTTTTTTTTTTTTT DIIS        TELAPSE        2.58 TCPU        2.58
 TTTTTTTTTTTTTTTTTTTTTTTTTTTTTT FDIK        TELAPSE        2.59 TCPU        2.59
 INSULATING STATE
 TOP OF VALENCE BANDS -    BAND     10; K    1; EIG -3.3028403E-01 AU
 BOTTOM OF VIRTUAL BANDS - BAND     11; K    1; EIG -8.7639965E-02 AU
 DIRECT ENERGY BAND GAP:   6.6027 eV
 TTTTTTTTTTTTTTTTTTTTTTTTTTTTTT PDIG        TELAPSE        2.61 TCPU        2.61
 TTTTTTTTTTTTTTTTTTTTTTTTTTTTTT MOQGAD      TELAPSE        2.62 TCPU        2.62
 TTTTTTTTTTTTTTTTTTTTTTTTTTTTTT SHELLXN     TELAPSE        4.56 TCPU        4.56
 TTTTTTTTTTTTTTTTTTTTTTTTTTTTTT MONMO3      TELAPSE        4.57 TCPU        4.57
 NUMERICALLY INTEGRATED DENSITY     20.0000532597
 TTTTTTTTTTTTTTTTTTTTTTTTTTTTTT NUMDFT      TELAPSE        4.86 TCPU        4.86
 CYC   1 ETOT(AU) -2.750725758361E+02 DETOT  9.74E-02 tst  0.00E+00 PX  1.00E+00
 TTTTTTTTTTTTTTTTTTTTTTTTTTTTTT DIIS        TELAPSE        4.87 TCPU        4.86
 DIIS TEST: 0.43801E+00 AT SCF   CYCLE   1 - MIX   30 %
 TTTTTTTTTTTTTTTTTTTTTTTTTTTTTT FDIK        TELAPSE        4.87 TCPU        4.87
 INSULATING STATE
 TOP OF VALENCE BANDS -    BAND     10; K    1; EIG -5.1080874E-02 AU
 BOTTOM OF VIRTUAL BANDS - BAND     11; K    1; EIG  6.2325118E-02 AU
 DIRECT ENERGY BAND GAP:   3.0859 eV
 TTTTTTTTTTTTTTTTTTTTTTTTTTTTTT PDIG        TELAPSE        4.89 TCPU        4.89
 TTTTTTTTTTTTTTTTTTTTTTTTTTTTTT MOQGAD      TELAPSE        4.91 TCPU        4.91
 TTTTTTTTTTTTTTTTTTTTTTTTTTTTTT SHELLXN     TELAPSE        6.84 TCPU        6.84
 TTTTTTTTTTTTTTTTTTTTTTTTTTTTTT MONMO3      TELAPSE        6.85 TCPU        6.85
 NUMERICALLY INTEGRATED DENSITY     20.0000702142
 TTTTTTTTTTTTTTTTTTTTTTTTTTTTTT NUMDFT      TELAPSE        7.14 TCPU        7.14
 CYC   2 ETOT(AU) -2.750708694241E+02 DETOT  1.71E-03 tst  2.55E-02 PX  3.72E-01
 TTTTTTTTTTTTTTTTTTTTTTTTTTTTTT DIIS        TELAPSE        7.15 TCPU        7.15
 DIIS TEST: 0.50382E+00 AT SCF   CYCLE   2 - DIIS ACTIVE - HISTORY:     2 CYCLES
 TTTTTTTTTTTTTTTTTTTTTTTTTTTTTT FDIK        TELAPSE        7.15 TCPU        7.15
 INSULATING STATE
 TOP OF VALENCE BANDS -    BAND     10; K    1; EIG -1.4536046E-01 AU
 BOTTOM OF VIRTUAL BANDS - BAND     11; K    1; EIG  2.3009035E-02 AU
 DIRECT ENERGY BAND GAP:   4.5816 eV
 TTTTTTTTTTTTTTTTTTTTTTTTTTTTTT PDIG        TELAPSE        7.18 TCPU        7.17
 TTTTTTTTTTTTTTTTTTTTTTTTTTTTTT MOQGAD      TELAPSE        7.19 TCPU        7.19
 TTTTTTTTTTTTTTTTTTTTTTTTTTTTTT SHELLXN     TELAPSE        9.13 TCPU        9.13
 TTTTTTTTTTTTTTTTTTTTTTTTTTTTTT MONMO3      TELAPSE        9.15 TCPU        9.14
 NUMERICALLY INTEGRATED DENSITY     20.0000623367
 TTTTTTTTTTTTTTTTTTTTTTTTTTTTTT NUMDFT      TELAPSE        9.43 TCPU        9.43
 CYC   3 ETOT(AU) -2.751732601304E+02 DETOT -1.02E-01 tst  4.57E-03 PX  2.17E-01
 TTTTTTTTTTTTTTTTTTTTTTTTTTTTTT DIIS        TELAPSE        9.44 TCPU        9.44
 DIIS TEST: 0.14210E-02 AT SCF   CYCLE   3 - DIIS ACTIVE - HISTORY:     3 CYCLES
 TTTTTTTTTTTTTTTTTTTTTTTTTTTTTT FDIK        TELAPSE        9.44 TCPU        9.44
 INSULATING STATE
 TOP OF VALENCE BANDS -    BAND     10; K    1; EIG -1.5084651E-01 AU
 BOTTOM OF VIRTUAL BANDS - BAND     11; K    1; EIG  1.9487286E-02 AU
 DIRECT ENERGY BAND GAP:   4.6350 eV
 TTTTTTTTTTTTTTTTTTTTTTTTTTTTTT PDIG        TELAPSE        9.47 TCPU        9.47
 TTTTTTTTTTTTTTTTTTTTTTTTTTTTTT MOQGAD      TELAPSE        9.48 TCPU        9.48
 TTTTTTTTTTTTTTTTTTTTTTTTTTTTTT SHELLXN     TELAPSE       11.41 TCPU       11.41
 TTTTTTTTTTTTTTTTTTTTTTTTTTTTTT MONMO3      TELAPSE       11.43 TCPU       11.43
 NUMERICALLY INTEGRATED DENSITY     20.0000619285
 TTTTTTTTTTTTTTTTTTTTTTTTTTTTTT NUMDFT      TELAPSE       11.72 TCPU       11.71
 CYC   4 ETOT(AU) -2.751735499690E+02 DETOT -2.90E-04 tst  8.96E-06 PX  6.55E-03
 TTTTTTTTTTTTTTTTTTTTTTTTTTTTTT DIIS        TELAPSE       11.72 TCPU       11.72
 DIIS TEST: 0.49701E-04 AT SCF   CYCLE   4 - DIIS ACTIVE - HISTORY:     4 CYCLES
 TTTTTTTTTTTTTTTTTTTTTTTTTTTTTT FDIK        TELAPSE       11.73 TCPU       11.72
 INSULATING STATE
 TOP OF VALENCE BANDS -    BAND     10; K    1; EIG -1.5260831E-01 AU
 BOTTOM OF VIRTUAL BANDS - BAND     11; K    1; EIG  1.8172792E-02 AU
 DIRECT ENERGY BAND GAP:   4.6472 eV
 TTTTTTTTTTTTTTTTTTTTTTTTTTTTTT PDIG        TELAPSE       11.75 TCPU       11.75
 TTTTTTTTTTTTTTTTTTTTTTTTTTTTTT MOQGAD      TELAPSE       11.76 TCPU       11.76
 TTTTTTTTTTTTTTTTTTTTTTTTTTTTTT SHELLXN     TELAPSE       13.70 TCPU       13.69
 TTTTTTTTTTTTTTTTTTTTTTTTTTTTTT MONMO3      TELAPSE       13.71 TCPU       13.71
 NUMERICALLY INTEGRATED DENSITY     20.0000618161
 TTTTTTTTTTTTTTTTTTTTTTTTTTTTTT NUMDFT      TELAPSE       14.00 TCPU       14.00
 CYC   5 ETOT(AU) -2.751735599071E+02 DETOT -9.94E-06 tst  5.02E-07 PX  1.68E-03
 TTTTTTTTTTTTTTTTTTTTTTTTTTTTTT DIIS        TELAPSE       14.00 TCPU       14.00
 DIIS TEST: 0.39410E-06 AT SCF   CYCLE   5 - DIIS ACTIVE - HISTORY:     5 CYCLES
 TTTTTTTTTTTTTTTTTTTTTTTTTTTTTT FDIK        TELAPSE       14.01 TCPU       14.01
 INSULATING STATE
 TOP OF VALENCE BANDS -    BAND     10; K    1; EIG -1.5254830E-01 AU
 BOTTOM OF VIRTUAL BANDS - BAND     11; K    1; EIG  1.8208838E-02 AU
 DIRECT ENERGY BAND GAP:   4.6465 eV
 TTTTTTTTTTTTTTTTTTTTTTTTTTTTTT PDIG        TELAPSE       14.03 TCPU       14.03
 TTTTTTTTTTTTTTTTTTTTTTTTTTTTTT MOQGAD      TELAPSE       14.05 TCPU       14.04
 TTTTTTTTTTTTTTTTTTTTTTTTTTTTTT SHELLXN     TELAPSE       16.00 TCPU       15.99
 TTTTTTTTTTTTTTTTTTTTTTTTTTTTTT MONMO3      TELAPSE       16.01 TCPU       16.01
 NUMERICALLY INTEGRATED DENSITY     20.0000618273
 TTTTTTTTTTTTTTTTTTTTTTTTTTTTTT NUMDFT      TELAPSE       16.30 TCPU       16.30
 CYC   6 ETOT(AU) -2.751735599830E+02 DETOT -7.58E-08 tst  3.55E-09 PX  1.53E-04
 TTTTTTTTTTTTTTTTTTTTTTTTTTTTTT DIIS        TELAPSE       16.31 TCPU       16.30
 DIIS TEST: 0.82815E-09 AT SCF   CYCLE   6 - DIIS ACTIVE - HISTORY:     6 CYCLES
 TTTTTTTTTTTTTTTTTTTTTTTTTTTTTT FDIK        TELAPSE       16.31 TCPU       16.31
 INSULATING STATE
 TOP OF VALENCE BANDS -    BAND     10; K    1; EIG -1.5255653E-01 AU
 BOTTOM OF VIRTUAL BANDS - BAND     11; K    1; EIG  1.8202909E-02 AU
 DIRECT ENERGY BAND GAP:   4.6466 eV
 TTTTTTTTTTTTTTTTTTTTTTTTTTTTTT PDIG        TELAPSE       16.34 TCPU       16.34
 TTTTTTTTTTTTTTTTTTTTTTTTTTTTTT MOQGAD      TELAPSE       16.35 TCPU       16.35
 TTTTTTTTTTTTTTTTTTTTTTTTTTTTTT SHELLXN     TELAPSE       18.29 TCPU       18.29
 TTTTTTTTTTTTTTTTTTTTTTTTTTTTTT MONMO3      TELAPSE       18.30 TCPU       18.30
 NUMERICALLY INTEGRATED DENSITY     20.0000618269
 TTTTTTTTTTTTTTTTTTTTTTTTTTTTTT NUMDFT      TELAPSE       18.59 TCPU       18.59
 CYC   7 ETOT(AU) -2.751735599829E+02 DETOT  7.07E-11 tst  9.29E-12 PX  6.06E-06
 TTTTTTTTTTTTTTTTTTTTTTTTTTTTTT DIIS        TELAPSE       18.59 TCPU       18.59
 DIIS TEST: 0.13375E-12 AT SCF   CYCLE   7 - DIIS ACTIVE - HISTORY:     7 CYCLES
 TTTTTTTTTTTTTTTTTTTTTTTTTTTTTT FDIK        TELAPSE       18.60 TCPU       18.60
 INSULATING STATE
 TOP OF VALENCE BANDS -    BAND     10; K    1; EIG -1.5255660E-01 AU
 BOTTOM OF VIRTUAL BANDS - BAND     11; K    1; EIG  1.8202858E-02 AU
 DIRECT ENERGY BAND GAP:   4.6466 eV
 TTTTTTTTTTTTTTTTTTTTTTTTTTTTTT PDIG        TELAPSE       18.62 TCPU       18.62
 TTTTTTTTTTTTTTTTTTTTTTTTTTTTTT MOQGAD      TELAPSE       18.64 TCPU       18.63
 TTTTTTTTTTTTTTTTTTTTTTTTTTTTTT SHELLXN     TELAPSE       20.57 TCPU       20.56
 ::: PSEUDO TOTAL   ENERGY                        -2.5013856262654E+02
 ::: VIRIAL COEFFICIENT                            1.0443051991934E+00
 TTTTTTTTTTTTTTTTTTTTTTTTTTTTTT MONMO3      TELAPSE       20.58 TCPU       20.58
 NUMERICALLY INTEGRATED DENSITY     20.0000618269
 EXCHANGE ENERGY: -0.243032598263E+02  CORRELATION ENERGY: -0.731737530027E+00
 TTTTTTTTTTTTTTTTTTTTTTTTTTTTTT NUMDFT      TELAPSE       20.87 TCPU       20.87
 CYC   8 ETOT(AU) -2.751735599829E+02 DETOT  2.27E-13 tst  5.73E-15 PX  6.06E-06

 == SCF ENDED - CONVERGENCE ON ENERGY      E(AU) -2.7517355998290E+02 CYCLES   8


 ENERGY EXPRESSION=HARTREE+FOCK EXCH*0.00000+(PBE        EXCH)*1.00000+PBE        CORR


 TOTAL ENERGY(DFT)(AU)(  8) -2.7517355998290E+02 DE 2.3E-13 tester 5.7E-15
 TTTTTTTTTTTTTTTTTTTTTTTTTTTTTT EDFT        TELAPSE       20.87 TCPU       20.87

 VOLUME OF PRIMITIVE CELL (A^3)=          19.442343876092
 *******************************************************************************
 LATTICE PARAMETERS (ANGSTROMS AND DEGREES) - BOHR = 0.5291772083 ANGSTROM
 PRIMITIVE CELL - CENTRING CODE 5/0 VOLUME=    19.442344 - DENSITY  3.415 g/cm^3
         A              B              C           ALPHA      BETA       GAMMA 
     3.01824534     3.01824534     3.01824534    60.000000  60.000000  60.000000
 *******************************************************************************
 ATOMS IN THE ASYMMETRIC UNIT    2 - ATOMS IN THE UNIT CELL:    2
     ATOM                 X/A                 Y/B                 Z/C    
 *******************************************************************************
      1 T  12 MG    0.000000000000E+00  0.000000000000E+00  0.000000000000E+00
      2 T   8 O    -5.000000000000E-01 -5.000000000000E-01 -5.000000000000E-01

 TRANSFORMATION MATRIX PRIMITIVE-CRYSTALLOGRAPHIC CELL
 -1.0000  1.0000  1.0000  1.0000 -1.0000  1.0000  1.0000  1.0000 -1.0000

 *******************************************************************************
 CRYSTALLOGRAPHIC CELL (VOLUME=         77.76937550)
         A              B              C           ALPHA      BETA       GAMMA 
     4.26844350     4.26844350     4.26844350    90.000000  90.000000  90.000000

 COORDINATES IN THE CRYSTALLOGRAPHIC CELL
     ATOM                 X/A                 Y/B                 Z/C    
 *******************************************************************************
      1 T  12 MG    0.000000000000E+00  0.000000000000E+00  0.000000000000E+00
      2 T   8 O    -5.000000000000E-01 -5.000000000000E-01 -5.000000000000E-01

 T = ATOM BELONGING TO THE ASYMMETRIC UNIT
 TTTTTTTTTTTTTTTTTTTTTTTTTTTTTT gordsh1     TELAPSE       20.87 TCPU       20.87

 MATRIX SIZE: P(G)   23983, F(G)   12421, P(G) IRR    1358, F(G) IRR    1358
 MAX G-VECTOR INDEX FOR 1- AND 2-ELECTRON INTEGRALS 247

 TTTTTTTTTTTTTTTTTTTTTTTTTTTTTT INPUT       TELAPSE       20.87 TCPU       20.87

 NEIGHBORS OF THE NON-EQUIVALENT ATOMS

 N = NUMBER OF NEIGHBORS AT DISTANCE R
    ATOM  N     R/ANG      R/AU   NEIGHBORS (ATOM LABELS AND CELL INDICES)
   1 MG   6     2.1342     4.0331    2 O   -1 0 0    2 O    0-1 0    2 O    0 0-1
                                     2 O   -1-1 0    2 O   -1 0-1    2 O    0-1-1
   1 MG  12     3.0182     5.7037    1 MG  -1 0 0    1 MG   1 0 0    1 MG  -1 0 1
                                     1 MG   1 0-1    1 MG  -1 1 0    1 MG   1-1 0
                                     1 MG   0-1 0    1 MG   0 1 0    1 MG   0-1 1
                                     1 MG   0 1-1    1 MG   0 0-1    1 MG   0 0 1
   1 MG   8     3.6966     6.9855    2 O    0 0 0    2 O   -1-1 1    2 O   -1 1-1
                                     2 O    1-1-1    2 O   -2 0 0    2 O    0-2 0
                                     2 O    0 0-2    2 O   -1-1-1
   1 MG   6     4.2684     8.0662    1 MG  -1-1 1    1 MG   1 1-1    1 MG  -1 1-1
                                     1 MG   1-1 1    1 MG  -1 1 1    1 MG   1-1-1
   1 MG  24     4.7723     9.0183    2 O    1 0-1    2 O   -1 0 1    2 O    1-1 0
                                     2 O   -1 1 0    2 O    0 1-1    2 O    0-1 1
                                     2 O   -2 0 1    2 O   -2 1 0    2 O    1 0-2
                                     2 O    1-2 0    2 O    0-2 1    2 O    0 1-2
                                     2 O   -2-1 1    2 O   -2 1-1    2 O   -1-2 1
                                     2 O   -1 1-2    2 O    1-1-2    2 O    1-2-1
                                     2 O   -2-1 0    2 O   -2 0-1    2 O   -1-2 0
                                     2 O   -1 0-2    2 O    0-2-1    2 O    0-1-2
   1 MG  24     5.2278     9.8790    1 MG  -2 0 1    1 MG   2 0-1    1 MG  -2 1 0
                                     1 MG   2-1 0    1 MG  -2 1 1    1 MG   2-1-1
                                     1 MG  -1-1 0    1 MG   1 1 0    1 MG  -1-1 2
                                     1 MG   1 1-2    1 MG  -1 0-1    1 MG   1 0 1
                                     1 MG  -1 0 2    1 MG   1 0-2    1 MG  -1 2-1
                                     1 MG   1-2 1    1 MG  -1 2 0    1 MG   1-2 0
                                     1 MG   0-2 1    1 MG   0 2-1    1 MG   0-1-1
                                     1 MG   0 1 1    1 MG   0-1 2    1 MG   0 1-2

   2 O    6     2.1342     4.0331    1 MG   1 0 0    1 MG   0 1 0    1 MG   0 0 1
                                     1 MG   1 1 0    1 MG   1 0 1    1 MG   0 1 1
   2 O   12     3.0182     5.7037    2 O   -1 0 0    2 O    1 0 0    2 O   -1 0 1
                                     2 O    1 0-1    2 O   -1 1 0    2 O    1-1 0
                                     2 O    0-1 0    2 O    0 1 0    2 O    0-1 1
                                     2 O    0 1-1    2 O    0 0-1    2 O    0 0 1
   2 O    8     3.6966     6.9855    1 MG   0 0 0    1 MG   1 1-1    1 MG   1-1 1
                                     1 MG  -1 1 1    1 MG   2 0 0    1 MG   0 2 0
                                     1 MG   0 0 2    1 MG   1 1 1
   2 O    6     4.2684     8.0662    2 O   -1-1 1    2 O    1 1-1    2 O   -1 1-1
                                     2 O    1-1 1    2 O   -1 1 1    2 O    1-1-1
   2 O   24     4.7723     9.0183    1 MG  -1 0 1    1 MG   1 0-1    1 MG  -1 1 0
                                     1 MG   1-1 0    1 MG   0-1 1    1 MG   0 1-1
                                     1 MG   2 0-1    1 MG   2-1 0    1 MG  -1 0 2
                                     1 MG  -1 2 0    1 MG   0 2-1    1 MG   0-1 2
                                     1 MG   2 1-1    1 MG   2-1 1    1 MG   1 2-1
                                     1 MG   1-1 2    1 MG  -1 1 2    1 MG  -1 2 1
                                     1 MG   2 1 0    1 MG   2 0 1    1 MG   1 2 0
                                     1 MG   1 0 2    1 MG   0 2 1    1 MG   0 1 2
   2 O   24     5.2278     9.8790    2 O   -2 0 1    2 O    2 0-1    2 O   -2 1 0
                                     2 O    2-1 0    2 O   -2 1 1    2 O    2-1-1
                                     2 O   -1-1 0    2 O    1 1 0    2 O   -1-1 2
                                     2 O    1 1-2    2 O   -1 0-1    2 O    1 0 1
                                     2 O   -1 0 2    2 O    1 0-2    2 O   -1 2-1
                                     2 O    1-2 1    2 O   -1 2 0    2 O    1-2 0
                                     2 O    0-2 1    2 O    0 2-1    2 O    0-1-1
                                     2 O    0 1 1    2 O    0-1 2    2 O    0 1-2


 SYMMETRY ALLOWED ELASTIC DISTORTION 1
  0.5773503  0.0000000  0.0000000
  0.0000000  0.5773503  0.0000000
  0.0000000  0.0000000  0.5773503

 THERE ARE NO SYMMETRY ALLOWED DIRECTIONS
 WARNING **** INT_SCREEN **** CELL PARAMETERS OPTIMIZATION ONLY
 TTTTTTTTTTTTTTTTTTTTTTTTTTTTTT SYMM        TELAPSE       20.88 TCPU       20.87
 TTTTTTTTTTTTTTTTTTTTTTTTTTTTTT INT_SCREEN  TELAPSE       20.88 TCPU       20.87

 *******************************************************************************
 * CELL DEFORMATION
 *******************************************************************************

    ELASTIC STRAIN MATRIX (ADIMENSIONAL)

    1   -0.0101017008    0.0000000000    0.0000000000
    2    0.0000000000   -0.0101017008    0.0000000000
    3    0.0000000000    0.0000000000   -0.0101017008

 LATTICE PARAMETERS (ANGSTROMS AND DEGREES) OF
 (1) ORIGINAL PRIMITIVE CELL
 (2) ORIGINAL CRYSTALLOGRAPHIC CELL
 (3) DEFORMED PRIMITIVE CELL
 (4) DEFORMED CRYSTALLOGRAPHIC CELL

            A           B           C        ALPHA       BETA        GAMMA         VOL
 (1)    3.018245    3.018245    3.018245   60.000000   60.000000   60.000000   19.442344
 (2)    4.268443    4.268443    4.268443   90.000000   90.000000   90.000000   77.769376
 (3)    2.987756    2.987756    2.987756   60.000000   60.000000   60.000000   18.859074
 (4)    4.225325    4.225325    4.225325   90.000000   90.000000   90.000000   75.436294

 * CELL DEFORMATION COMPLETE - NO. OF SYMMOPS  48
 *******************************************************************************
 LATTICE PARAMETERS (ANGSTROMS AND DEGREES) - BOHR = 0.5291772083 ANGSTROM
 PRIMITIVE CELL - CENTRING CODE 5/0 VOLUME=    18.859074 - DENSITY  3.520 g/cm^3
         A              B              C           ALPHA      BETA       GAMMA 
     2.98775593     2.98775593     2.98775593    60.000000  60.000000  60.000000
 *******************************************************************************
 ATOMS IN THE ASYMMETRIC UNIT    2 - ATOMS IN THE UNIT CELL:    2
     ATOM                 X/A                 Y/B                 Z/C    
 *******************************************************************************
      1 T  12 MG    0.000000000000E+00  0.000000000000E+00  0.000000000000E+00
      2 T   8 O    -5.000000000000E-01 -5.000000000000E-01 -5.000000000000E-01

 TRANSFORMATION MATRIX PRIMITIVE-CRYSTALLOGRAPHIC CELL
 -1.0000  1.0000  1.0000  1.0000 -1.0000  1.0000  1.0000  1.0000 -1.0000

 *******************************************************************************
 CRYSTALLOGRAPHIC CELL (VOLUME=         75.43629424)
         A              B              C           ALPHA      BETA       GAMMA 
     4.22532496     4.22532496     4.22532496    90.000000  90.000000  90.000000

 COORDINATES IN THE CRYSTALLOGRAPHIC CELL
     ATOM                 X/A                 Y/B                 Z/C    
 *******************************************************************************
      1 T  12 MG    0.000000000000E+00  0.000000000000E+00  0.000000000000E+00
      2 T   8 O    -5.000000000000E-01 -5.000000000000E-01 -5.000000000000E-01

 T = ATOM BELONGING TO THE ASYMMETRIC UNIT
 INFORMATION **** CVOLOPT **** CONSTANT VOLUME OPTIMIZATION

 SYMMETRY ALLOWED ELASTIC DISTORTION 1
  0.5773503  0.0000000  0.0000000
  0.0000000  0.5773503  0.0000000
  0.0000000  0.0000000  0.5773503

 THERE ARE NO SYMMETRY ALLOWED DIRECTIONS

 *******************************************************************************
 *                             OPTIMIZATION STARTS                             *
 *******************************************************************************
 RECLASIFICATION OF INDICES FOR INTEGRAL CALC ACCORDING TO DIFFERENT CRITERIA:
           FIXDELTE                  FIXDELTX              FIXDELTN
           0.0000000                0.0000000              *****
 DEFAULT MAX NUM OF POINTS  100
 *******************************************************************************

 *******************************************************************************
 CELL OPTIMIZATION - POINT    1

 DFT PARAMETERS

     ATOM       ELECTRONS   NET CHARGE   R(ANGSTROM)
   1  12  MG     12.0000      0.0000     1.60000000
   2   8  O       8.0000      0.0000     0.74000000

 SIZE OF GRID=       1311
 TTTTTTTTTTTTTTTTTTTTTTTTTTTTTT MAKE_GRID2  TELAPSE       21.45 TCPU       21.45
 BECKE WEIGHT FUNCTION
 RADSAFE =     2.00
 TOLERANCES - DENSITY:10**- 6; POTENTIAL:10**- 9; GRID WGT:10**-14

 RADIAL INTEGRATION  - INTERVALS (POINTS,UPPER LIMIT):            1( 75,  4.0*R)

 ANGULAR INTEGRATION - INTERVALS (ACCURACY LEVEL [N. POINTS] UPPER LIMIT):
  1(  4[  86]   0.2)  2(  8[ 194]   0.5)  3( 12[ 350]   0.9)  4( 16[ 974]   3.5)
  5( 12[ 350]9999.0)

 *******************************************************************************
 MgO primitive - PBE/pob-DVZVP-rev2 - QHA                                        
 CRYSTAL - SCF - TYPE OF CALCULATION :  RESTRICTED CLOSED SHELL
 *******************************************************************************

 CAPPA:IS1  8;IS2  8;IS3  8; K PTS MONK NET  29; SYMMOPS:K SPACE  48;G SPACE  48

 TTTTTTTTTTTTTTTTTTTTTTTTTTTTTT SDIK        TELAPSE       21.48 TCPU       21.48

 INFORMATION FROM INTEGRAL EVALUATION

 RESTART FROM A PREVIOUS DENSITY MATRIX - DEP ACTIVE
 NUMBER OF COUPLE SETS (NEW, OLD, FOUND):      90      90      90
 NUMBER OF IRREDUCIBLE G VECTORS        :     258     258     258

 *******************************************************************************
 LOCAL ATOMIC FUNCTIONS BASIS SET
 *******************************************************************************
   ATOM   X(AU)   Y(AU)   Z(AU)  N. TYPE  EXPONENT  S COEF   P COEF   D/F/G COEF
 *******************************************************************************
   1 MG   0.000   0.000   0.000
                                  1 S  
                                         4.954E+03-5.865E+00 0.000E+00 0.000E+00
                                         7.452E+02-1.057E+01 0.000E+00 0.000E+00
                                         1.692E+02-1.554E+01 0.000E+00 0.000E+00
                                         4.730E+01-1.508E+01 0.000E+00 0.000E+00
                                         1.446E+01-5.425E+00 0.000E+00 0.000E+00
                                  2 S  
                                         2.477E+01 1.676E+00 0.000E+00 0.000E+00
                                         2.494E+00-1.880E+00 0.000E+00 0.000E+00
                                         8.781E-01-8.323E-01 0.000E+00 0.000E+00
                                  3 S  
                                         3.451E-01 7.804E-01 0.000E+00 0.000E+00
                                  4 S  
                                         1.501E-01 4.179E-01 0.000E+00 0.000E+00
                           5-     7 P  
                                         9.805E+01 0.000E+00-1.549E+01 0.000E+00
                                         2.259E+01 0.000E+00-1.630E+01 0.000E+00
                                         6.839E+00 0.000E+00-1.180E+01 0.000E+00
                                         2.233E+00 0.000E+00-4.726E+00 0.000E+00
                                         7.161E-01 0.000E+00-7.194E-01 0.000E+00
                           8-    10 P  
                                         2.469E-01 0.000E+00 6.034E-01 0.000E+00
                          11-    15 D  
                                         4.148E-01 0.000E+00 0.000E+00 8.584E-01
   2 O    4.033   4.033   4.033
                                 16 S  
                                         2.266E+03-3.068E+00 0.000E+00 0.000E+00
                                         3.409E+02-5.533E+00 0.000E+00 0.000E+00
                                         7.736E+01-8.142E+00 0.000E+00 0.000E+00
                                         2.148E+01-8.099E+00 0.000E+00 0.000E+00
                                         6.659E+00-3.211E+00 0.000E+00 0.000E+00
                                 17 S  
                                         8.479E-01 1.532E+00 0.000E+00 0.000E+00
                                 18 S  
                                         2.791E-01 6.655E-01 0.000E+00 0.000E+00
                          19-    21 P  
                                         1.772E+01 0.000E+00 7.895E+00 0.000E+00
                                         3.864E+00 0.000E+00 6.259E+00 0.000E+00
                                         1.048E+00 0.000E+00 2.726E+00 0.000E+00
                          22-    24 P  
                                         2.624E-01 0.000E+00 6.510E-01 0.000E+00
                          25-    29 D  
                                         4.790E-01 0.000E+00 0.000E+00 1.104E+00
 TTTTTTTTTTTTTTTTTTTTTTTTTTTTTT MOQGAD      TELAPSE       21.50 TCPU       21.49
 TTTTTTTTTTTTTTTTTTTTTTTTTTTTTT SHELLXN     TELAPSE       23.41 TCPU       23.41
 TTTTTTTTTTTTTTTTTTTTTTTTTTTTTT MONMO3      TELAPSE       23.43 TCPU       23.42
 NUMERICALLY INTEGRATED DENSITY     20.0000829568
 TTTTTTTTTTTTTTTTTTTTTTTTTTTTTT NUMDFT      TELAPSE       23.71 TCPU       23.71
 CYC   0 ETOT(AU) -2.750514164019E+02 DETOT -2.75E+02 tst  5.73E-15 PX  1.00E+00
 TTTTTTTTTTTTTTTTTTTTTTTTTTTTTT DIIS        TELAPSE       23.72 TCPU       23.71
 TTTTTTTTTTTTTTTTTTTTTTTTTTTTTT FDIK        TELAPSE       23.73 TCPU       23.72
 INSULATING STATE
 TOP OF VALENCE BANDS -    BAND     10; K    1; EIG -1.5570402E-01 AU
 BOTTOM OF VIRTUAL BANDS - BAND     11; K    1; EIG  2.7222680E-02 AU
 DIRECT ENERGY BAND GAP:   4.9777 eV
 TTTTTTTTTTTTTTTTTTTTTTTTTTTTTT PDIG        TELAPSE       23.75 TCPU       23.75
 TTTTTTTTTTTTTTTTTTTTTTTTTTTTTT MOQGAD      TELAPSE       23.76 TCPU       23.76
 TTTTTTTTTTTTTTTTTTTTTTTTTTTTTT SHELLXN     TELAPSE       25.68 TCPU       25.67
 TTTTTTTTTTTTTTTTTTTTTTTTTTTTTT MONMO3      TELAPSE       25.69 TCPU       25.69
 NUMERICALLY INTEGRATED DENSITY     20.0000821202
 TTTTTTTTTTTTTTTTTTTTTTTTTTTTTT NUMDFT      TELAPSE       25.98 TCPU       25.98
 CYC   1 ETOT(AU) -2.751738537732E+02 DETOT -1.22E-01 tst  0.00E+00 PX  1.77E-02
 TTTTTTTTTTTTTTTTTTTTTTTTTTTTTT DIIS        TELAPSE       25.99 TCPU       25.98
 DIIS TEST: 0.62214E-03 AT SCF   CYCLE   1 - MIX   30 %
 TTTTTTTTTTTTTTTTTTTTTTTTTTTTTT FDIK        TELAPSE       25.99 TCPU       25.99
 INSULATING STATE
 TOP OF VALENCE BANDS -    BAND     10; K    1; EIG -1.4695023E-01 AU
 BOTTOM OF VIRTUAL BANDS - BAND     11; K    1; EIG  3.2887849E-02 AU
 DIRECT ENERGY BAND GAP:   4.8936 eV
 TTTTTTTTTTTTTTTTTTTTTTTTTTTTTT PDIG        TELAPSE       26.02 TCPU       26.01
 TTTTTTTTTTTTTTTTTTTTTTTTTTTTTT MOQGAD      TELAPSE       26.03 TCPU       26.03
 TTTTTTTTTTTTTTTTTTTTTTTTTTTTTT SHELLXN     TELAPSE       27.94 TCPU       27.94
 TTTTTTTTTTTTTTTTTTTTTTTTTTTTTT MONMO3      TELAPSE       27.96 TCPU       27.95
 NUMERICALLY INTEGRATED DENSITY     20.0000829241
 TTTTTTTTTTTTTTTTTTTTTTTTTTTTTT NUMDFT      TELAPSE       28.24 TCPU       28.24
 CYC   2 ETOT(AU) -2.751739058620E+02 DETOT -5.21E-05 tst  1.68E-05 PX  9.47E-03
 TTTTTTTTTTTTTTTTTTTTTTTTTTTTTT DIIS        TELAPSE       28.25 TCPU       28.24
 DIIS TEST: 0.36782E-03 AT SCF   CYCLE   2 - DIIS ACTIVE - HISTORY:     2 CYCLES
 TTTTTTTTTTTTTTTTTTTTTTTTTTTTTT FDIK        TELAPSE       28.25 TCPU       28.25
 INSULATING STATE
 TOP OF VALENCE BANDS -    BAND     10; K    1; EIG -1.5050732E-01 AU
 BOTTOM OF VIRTUAL BANDS - BAND     11; K    1; EIG  3.1745555E-02 AU
 DIRECT ENERGY BAND GAP:   4.9594 eV
 TTTTTTTTTTTTTTTTTTTTTTTTTTTTTT PDIG        TELAPSE       28.28 TCPU       28.27
 TTTTTTTTTTTTTTTTTTTTTTTTTTTTTT MOQGAD      TELAPSE       28.29 TCPU       28.29
 TTTTTTTTTTTTTTTTTTTTTTTTTTTTTT SHELLXN     TELAPSE       30.20 TCPU       30.20
 TTTTTTTTTTTTTTTTTTTTTTTTTTTTTT MONMO3      TELAPSE       30.22 TCPU       30.21
 NUMERICALLY INTEGRATED DENSITY     20.0000825298
 TTTTTTTTTTTTTTTTTTTTTTTTTTTTTT NUMDFT      TELAPSE       30.50 TCPU       30.50
 CYC   3 ETOT(AU) -2.751739790473E+02 DETOT -7.32E-05 tst  7.59E-06 PX  6.79E-03
 TTTTTTTTTTTTTTTTTTTTTTTTTTTTTT DIIS        TELAPSE       30.51 TCPU       30.50
 DIIS TEST: 0.31554E-04 AT SCF   CYCLE   3 - DIIS ACTIVE - HISTORY:     3 CYCLES
 TTTTTTTTTTTTTTTTTTTTTTTTTTTTTT FDIK        TELAPSE       30.51 TCPU       30.51
 INSULATING STATE
 TOP OF VALENCE BANDS -    BAND     10; K    1; EIG -1.4965311E-01 AU
 BOTTOM OF VIRTUAL BANDS - BAND     11; K    1; EIG  3.2094476E-02 AU
 DIRECT ENERGY BAND GAP:   4.9456 eV
 TTTTTTTTTTTTTTTTTTTTTTTTTTTTTT PDIG        TELAPSE       30.54 TCPU       30.53
 TTTTTTTTTTTTTTTTTTTTTTTTTTTTTT MOQGAD      TELAPSE       30.55 TCPU       30.55
 TTTTTTTTTTTTTTTTTTTTTTTTTTTTTT SHELLXN     TELAPSE       32.46 TCPU       32.45
 TTTTTTTTTTTTTTTTTTTTTTTTTTTTTT MONMO3      TELAPSE       32.47 TCPU       32.47
 NUMERICALLY INTEGRATED DENSITY     20.0000825949
 TTTTTTTTTTTTTTTTTTTTTTTTTTTTTT NUMDFT      TELAPSE       32.76 TCPU       32.75
 CYC   4 ETOT(AU) -2.751739866768E+02 DETOT -7.63E-06 tst  3.45E-07 PX  1.45E-03
 TTTTTTTTTTTTTTTTTTTTTTTTTTTTTT DIIS        TELAPSE       32.76 TCPU       32.76
 DIIS TEST: 0.18136E-07 AT SCF   CYCLE   4 - DIIS ACTIVE - HISTORY:     4 CYCLES
 TTTTTTTTTTTTTTTTTTTTTTTTTTTTTT FDIK        TELAPSE       32.77 TCPU       32.76
 INSULATING STATE
 TOP OF VALENCE BANDS -    BAND     10; K    1; EIG -1.4959644E-01 AU
 BOTTOM OF VIRTUAL BANDS - BAND     11; K    1; EIG  3.2138897E-02 AU
 DIRECT ENERGY BAND GAP:   4.9453 eV
 TTTTTTTTTTTTTTTTTTTTTTTTTTTTTT PDIG        TELAPSE       32.79 TCPU       32.79
 TTTTTTTTTTTTTTTTTTTTTTTTTTTTTT MOQGAD      TELAPSE       32.81 TCPU       32.80
 TTTTTTTTTTTTTTTTTTTTTTTTTTTTTT SHELLXN     TELAPSE       34.72 TCPU       34.71
 TTTTTTTTTTTTTTTTTTTTTTTTTTTTTT MONMO3      TELAPSE       34.73 TCPU       34.73
 NUMERICALLY INTEGRATED DENSITY     20.0000825970
 TTTTTTTTTTTTTTTTTTTTTTTTTTTTTT NUMDFT      TELAPSE       35.02 TCPU       35.01
 CYC   5 ETOT(AU) -2.751739866807E+02 DETOT -3.93E-09 tst  3.04E-10 PX  3.07E-05
 TTTTTTTTTTTTTTTTTTTTTTTTTTTTTT DIIS        TELAPSE       35.02 TCPU       35.02
 DIIS TEST: 0.14017E-08 AT SCF   CYCLE   5 - DIIS ACTIVE - HISTORY:     5 CYCLES
 TTTTTTTTTTTTTTTTTTTTTTTTTTTTTT FDIK        TELAPSE       35.03 TCPU       35.02
 INSULATING STATE
 TOP OF VALENCE BANDS -    BAND     10; K    1; EIG -1.4960991E-01 AU
 BOTTOM OF VIRTUAL BANDS - BAND     11; K    1; EIG  3.2128799E-02 AU
 DIRECT ENERGY BAND GAP:   4.9454 eV
 TTTTTTTTTTTTTTTTTTTTTTTTTTTTTT PDIG        TELAPSE       35.05 TCPU       35.05
 TTTTTTTTTTTTTTTTTTTTTTTTTTTTTT MOQGAD      TELAPSE       35.07 TCPU       35.06
 TTTTTTTTTTTTTTTTTTTTTTTTTTTTTT SHELLXN     TELAPSE       36.97 TCPU       36.97
 TTTTTTTTTTTTTTTTTTTTTTTTTTTTTT MONMO3      TELAPSE       36.99 TCPU       36.98
 NUMERICALLY INTEGRATED DENSITY     20.0000825964
 TTTTTTTTTTTTTTTTTTTTTTTTTTTTTT NUMDFT      TELAPSE       37.27 TCPU       37.27
 CYC   6 ETOT(AU) -2.751739866806E+02 DETOT  1.16E-10 tst  1.72E-11 PX  8.88E-06
 TTTTTTTTTTTTTTTTTTTTTTTTTTTTTT DIIS        TELAPSE       37.28 TCPU       37.27
 DIIS TEST: 0.12386E-11 AT SCF   CYCLE   6 - DIIS ACTIVE - HISTORY:     6 CYCLES
 TTTTTTTTTTTTTTTTTTTTTTTTTTTTTT FDIK        TELAPSE       37.28 TCPU       37.28
 INSULATING STATE
 TOP OF VALENCE BANDS -    BAND     10; K    1; EIG -1.4961011E-01 AU
 BOTTOM OF VIRTUAL BANDS - BAND     11; K    1; EIG  3.2128665E-02 AU
 DIRECT ENERGY BAND GAP:   4.9454 eV
 TTTTTTTTTTTTTTTTTTTTTTTTTTTTTT PDIG        TELAPSE       37.31 TCPU       37.30
 TTTTTTTTTTTTTTTTTTTTTTTTTTTTTT MOQGAD      TELAPSE       37.32 TCPU       37.32
 TTTTTTTTTTTTTTTTTTTTTTTTTTTTTT SHELLXN     TELAPSE       39.23 TCPU       39.22
 TTTTTTTTTTTTTTTTTTTTTTTTTTTTTT MONMO3      TELAPSE       39.24 TCPU       39.24
 NUMERICALLY INTEGRATED DENSITY     20.0000825964
 TTTTTTTTTTTTTTTTTTTTTTTTTTTTTT NUMDFT      TELAPSE       39.53 TCPU       39.53
 CYC   7 ETOT(AU) -2.751739866806E+02 DETOT  8.47E-12 tst  1.04E-14 PX  1.91E-07
 TTTTTTTTTTTTTTTTTTTTTTTTTTTTTT DIIS        TELAPSE       39.54 TCPU       39.53
 DIIS TEST: 0.91760E-13 AT SCF   CYCLE   7 - DIIS ACTIVE - HISTORY:     7 CYCLES
 TTTTTTTTTTTTTTTTTTTTTTTTTTTTTT FDIK        TELAPSE       39.54 TCPU       39.53
 INSULATING STATE
 TOP OF VALENCE BANDS -    BAND     10; K    1; EIG -1.4961014E-01 AU
 BOTTOM OF VIRTUAL BANDS - BAND     11; K    1; EIG  3.2128641E-02 AU
 DIRECT ENERGY BAND GAP:   4.9454 eV
 TTTTTTTTTTTTTTTTTTTTTTTTTTTTTT PDIG        TELAPSE       39.56 TCPU       39.56
 TTTTTTTTTTTTTTTTTTTTTTTTTTTTTT MOQGAD      TELAPSE       39.58 TCPU       39.57
 TTTTTTTTTTTTTTTTTTTTTTTTTTTTTT SHELLXN     TELAPSE       41.48 TCPU       41.48
 ::: PSEUDO TOTAL   ENERGY                        -2.5012374676388E+02
 ::: VIRIAL COEFFICIENT                            1.0444504528150E+00
 TTTTTTTTTTTTTTTTTTTTTTTTTTTTTT MONMO3      TELAPSE       41.50 TCPU       41.49
 NUMERICALLY INTEGRATED DENSITY     20.0000825964
 EXCHANGE ENERGY: -0.243165920719E+02  CORRELATION ENERGY: -0.733647844800E+00
 TTTTTTTTTTTTTTTTTTTTTTTTTTTTTT NUMDFT      TELAPSE       41.79 TCPU       41.78
 CYC   8 ETOT(AU) -2.751739866806E+02 DETOT -1.19E-12 tst  1.53E-15 PX  1.91E-07

 == SCF ENDED - CONVERGENCE ON ENERGY      E(AU) -2.7517398668060E+02 CYCLES   8


 ENERGY EXPRESSION=HARTREE+FOCK EXCH*0.00000+(PBE        EXCH)*1.00000+PBE        CORR


 TOTAL ENERGY(DFT)(AU)(  8) -2.7517398668060E+02 DE-1.2E-12 tester 1.5E-15
 TTTTTTTTTTTTTTTTTTTTTTTTTTTTTT EDFT        TELAPSE       41.79 TCPU       41.78

 *******************************************************************************
 *                             FORCE CALCULATION                               *
 *******************************************************************************

 TTTTTTTTTTTTTTTTTTTTTTTTTTTTTT NUMDFG      TELAPSE       47.29 TCPU       47.29
 INFORMATION **** EXCPOG **** EXCH. BIPO BUFFER LENGTH (WORDS) =           0
 INFORMATION **** GENPOG **** BIPO BUFFER LENGTH (WORDS) =      238200
 TTTTTTTTTTTTTTTTTTTTTTTTTTTTTT SHELXG      TELAPSE       58.61 TCPU       58.61

 CARTESIAN FORCES IN HARTREE/BOHR (ANALYTICAL)
   ATOM                     X                   Y                   Z
   1  12             4.700256375624E-15  4.707933843815E-15  4.607460806789E-15
   2   8            -4.704882304893E-15 -4.702729673387E-15 -4.607460806789E-15

 RESULTANT FORCE    -4.625929269272E-18  5.204170427930E-18  0.000000000000E+00

 ATOMIC PART

 THERE ARE NO SYMMETRY ALLOWED DIRECTIONS

 CELL PART

 THERE ARE NO SYMMETRY ALLOWED DIRECTIONS
 TTTTTTTTTTTTTTTTTTTTTTTTTTTTTT TOTGRA      TELAPSE       59.01 TCPU       59.00
 INFORMATION **** optc001 **** GEOMETRY OUTPUT FILE
 CLASSICAL MODEL (SCHLEGEL) USED AS INITIAL HESSIAN MATRIX

 THERE ARE NO SYMMETRY ALLOWED DIRECTIONS
 REFERENCE GEOMETRY DEFINED

 MAX GRADIENT      0.000000  THRESHOLD              0.000450 CONVERGED YES
 RMS GRADIENT      0.000000  THRESHOLD              0.000300 CONVERGED YES

 WARNINGWARNINGWARNINGWARNINGWARNINGWARNINGWARNINGWARNINGWARNINGWARNINGWARNING

 CONVERGENCE ON GRADIENTS SATISFIED AFTER THE FIRST OPTIMIZATION CYCLE
 GEOMETRY OPTIMIZATION STOPPED

 WARNINGWARNINGWARNINGWARNINGWARNINGWARNINGWARNINGWARNINGWARNINGWARNINGWARNING


 ******************************************************************
 * OPT END - CONVERGED * E(AU):  -2.751739866806E+02  POINTS    1 *
 ******************************************************************

   BAND GAP:                      4.9454  eV 

 EIGENVECTORS IN FORTRAN UNIT  8

 NEIGHBORS OF THE NON-EQUIVALENT ATOMS

 N = NUMBER OF NEIGHBORS AT DISTANCE R
    ATOM  N     R/ANG      R/AU   NEIGHBORS (ATOM LABELS AND CELL INDICES)
   1 MG   6     2.1127     3.9924    2 O   -1 0 0    2 O    0-1 0    2 O    0 0-1
                                     2 O   -1-1 0    2 O   -1 0-1    2 O    0-1-1
   1 MG  12     2.9878     5.6460    1 MG  -1 0 0    1 MG   1 0 0    1 MG  -1 0 1
                                     1 MG   1 0-1    1 MG  -1 1 0    1 MG   1-1 0
                                     1 MG   0-1 0    1 MG   0 1 0    1 MG   0-1 1
                                     1 MG   0 1-1    1 MG   0 0-1    1 MG   0 0 1
   1 MG   8     3.6592     6.9150    2 O    0 0 0    2 O   -1-1 1    2 O   -1 1-1
                                     2 O    1-1-1    2 O   -2 0 0    2 O    0-2 0
                                     2 O    0 0-2    2 O   -1-1-1
   1 MG   6     4.2253     7.9847    1 MG  -1-1 1    1 MG   1 1-1    1 MG  -1 1-1
                                     1 MG   1-1 1    1 MG  -1 1 1    1 MG   1-1-1
   1 MG  24     4.7241     8.9272    2 O    1 0-1    2 O   -1 0 1    2 O    1-1 0
                                     2 O   -1 1 0    2 O    0 1-1    2 O    0-1 1
                                     2 O   -2 0 1    2 O   -2 1 0    2 O    1 0-2
                                     2 O    1-2 0    2 O    0-2 1    2 O    0 1-2
                                     2 O   -2-1 1    2 O   -2 1-1    2 O   -1-2 1
                                     2 O   -1 1-2    2 O    1-1-2    2 O    1-2-1
                                     2 O   -2-1 0    2 O   -2 0-1    2 O   -1-2 0
                                     2 O   -1 0-2    2 O    0-2-1    2 O    0-1-2
   1 MG  24     5.1749     9.7792    1 MG  -2 0 1    1 MG   2 0-1    1 MG  -2 1 0
                                     1 MG   2-1 0    1 MG  -2 1 1    1 MG   2-1-1
                                     1 MG  -1-1 0    1 MG   1 1 0    1 MG  -1-1 2
                                     1 MG   1 1-2    1 MG  -1 0-1    1 MG   1 0 1
                                     1 MG  -1 0 2    1 MG   1 0-2    1 MG  -1 2-1
                                     1 MG   1-2 1    1 MG  -1 2 0    1 MG   1-2 0
                                     1 MG   0-2 1    1 MG   0 2-1    1 MG   0-1-1
                                     1 MG   0 1 1    1 MG   0-1 2    1 MG   0 1-2

   2 O    6     2.1127     3.9924    1 MG   1 0 0    1 MG   0 1 0    1 MG   0 0 1
                                     1 MG   1 1 0    1 MG   1 0 1    1 MG   0 1 1
   2 O   12     2.9878     5.6460    2 O   -1 0 0    2 O    1 0 0    2 O   -1 0 1
                                     2 O    1 0-1    2 O   -1 1 0    2 O    1-1 0
                                     2 O    0-1 0    2 O    0 1 0    2 O    0-1 1
                                     2 O    0 1-1    2 O    0 0-1    2 O    0 0 1
   2 O    8     3.6592     6.9150    1 MG   0 0 0    1 MG   1 1-1    1 MG   1-1 1
                                     1 MG  -1 1 1    1 MG   2 0 0    1 MG   0 2 0
                                     1 MG   0 0 2    1 MG   1 1 1
   2 O    6     4.2253     7.9847    2 O   -1-1 1    2 O    1 1-1    2 O   -1 1-1
                                     2 O    1-1 1    2 O   -1 1 1    2 O    1-1-1
   2 O   24     4.7241     8.9272    1 MG  -1 0 1    1 MG   1 0-1    1 MG  -1 1 0
                                     1 MG   1-1 0    1 MG   0-1 1    1 MG   0 1-1
                                     1 MG   2 0-1    1 MG   2-1 0    1 MG  -1 0 2
                                     1 MG  -1 2 0    1 MG   0 2-1    1 MG   0-1 2
                                     1 MG   2 1-1    1 MG   2-1 1    1 MG   1 2-1
                                     1 MG   1-1 2    1 MG  -1 1 2    1 MG  -1 2 1
                                     1 MG   2 1 0    1 MG   2 0 1    1 MG   1 2 0
                                     1 MG   1 0 2    1 MG   0 2 1    1 MG   0 1 2
   2 O   24     5.1749     9.7792    2 O   -2 0 1    2 O    2 0-1    2 O   -2 1 0
                                     2 O    2-1 0    2 O   -2 1 1    2 O    2-1-1
                                     2 O   -1-1 0    2 O    1 1 0    2 O   -1-1 2
                                     2 O    1 1-2    2 O   -1 0-1    2 O    1 0 1
                                     2 O   -1 0 2    2 O    1 0-2    2 O   -1 2-1
                                     2 O    1-2 1    2 O   -1 2 0    2 O    1-2 0
                                     2 O    0-2 1    2 O    0 2-1    2 O    0-1-1
                                     2 O    0 1 1    2 O    0-1 2    2 O    0 1-2


 FINAL OPTIMIZED GEOMETRY - DIMENSIONALITY OF THE SYSTEM      3
 (NON PERIODIC DIRECTION: LATTICE PARAMETER FORMALLY SET TO 500)
 *******************************************************************************
 LATTICE PARAMETERS (ANGSTROMS AND DEGREES) - BOHR = 0.5291772083 ANGSTROM
 PRIMITIVE CELL - CENTRING CODE 5/0 VOLUME=    18.859074 - DENSITY  3.520 g/cm^3
         A              B              C           ALPHA      BETA       GAMMA 
     2.98775593     2.98775593     2.98775593    60.000000  60.000000  60.000000
 *******************************************************************************
 ATOMS IN THE ASYMMETRIC UNIT    2 - ATOMS IN THE UNIT CELL:    2
     ATOM                 X/A                 Y/B                 Z/C    
 *******************************************************************************
      1 T  12 MG    0.000000000000E+00  0.000000000000E+00  0.000000000000E+00
      2 T   8 O    -5.000000000000E-01 -5.000000000000E-01 -5.000000000000E-01

 TRANSFORMATION MATRIX PRIMITIVE-CRYSTALLOGRAPHIC CELL
 -1.0000  1.0000  1.0000  1.0000 -1.0000  1.0000  1.0000  1.0000 -1.0000

 *******************************************************************************
 CRYSTALLOGRAPHIC CELL (VOLUME=         75.43629424)
         A              B              C           ALPHA      BETA       GAMMA 
     4.22532496     4.22532496     4.22532496    90.000000  90.000000  90.000000

 COORDINATES IN THE CRYSTALLOGRAPHIC CELL
     ATOM                 X/A                 Y/B                 Z/C    
 *******************************************************************************
      1 T  12 MG    0.000000000000E+00  0.000000000000E+00  0.000000000000E+00
      2 T   8 O    -5.000000000000E-01 -5.000000000000E-01 -5.000000000000E-01

 T = ATOM BELONGING TO THE ASYMMETRIC UNIT
 INFORMATION **** fort.34 **** GEOMETRY OUTPUT FILE

 DIRECT LATTICE VECTORS CARTESIAN COMPONENTS (ANGSTROM)
          X                    Y                    Z
   0.000000000000E+00   0.211266248055E+01   0.211266248055E+01
   0.211266248055E+01   0.000000000000E+00   0.211266248055E+01
   0.211266248055E+01   0.211266248055E+01   0.000000000000E+00


 CARTESIAN COORDINATES - PRIMITIVE CELL
 *******************************************************************************
 *      ATOM          X(ANGSTROM)         Y(ANGSTROM)         Z(ANGSTROM)
 *******************************************************************************
    1    12 MG    0.000000000000E+00  0.000000000000E+00  0.000000000000E+00
    2     8 O     2.112662480546E+00  2.112662480546E+00  2.112662480546E+00

 GCALCO - MAX INDICES DIRECT LATTICE VECTOR    14    14    14
 NO.OF VECTORS CREATED 6999 STARS  105 RMAX    59.75208 BOHR

 CAPPA:IS1  8;IS2  8;IS3  8; K PTS MONK NET  29; SYMMOPS:K SPACE  48;G SPACE  48

 TTTTTTTTTTTTTTTTTTTTTTTTTTTTTT gordsh1     TELAPSE       59.03 TCPU       59.03

 MATRIX SIZE: P(G)   24655, F(G)   12757, P(G) IRR    1384, F(G) IRR    1384
 MAX G-VECTOR INDEX FOR 1- AND 2-ELECTRON INTEGRALS 247

 TTTTTTTTTTTTTTTTTTTTTTTTTTTTTT INPUT       TELAPSE       59.04 TCPU       59.03

 NEIGHBORS OF THE NON-EQUIVALENT ATOMS

 N = NUMBER OF NEIGHBORS AT DISTANCE R
    ATOM  N     R/ANG      R/AU   NEIGHBORS (ATOM LABELS AND CELL INDICES)
   1 MG   6     2.1127     3.9924    2 O   -1 0 0    2 O    0-1 0    2 O    0 0-1
                                     2 O   -1-1 0    2 O   -1 0-1    2 O    0-1-1
   1 MG  12     2.9878     5.6460    1 MG  -1 0 0    1 MG   1 0 0    1 MG  -1 0 1
                                     1 MG   1 0-1    1 MG  -1 1 0    1 MG   1-1 0
                                     1 MG   0-1 0    1 MG   0 1 0    1 MG   0-1 1
                                     1 MG   0 1-1    1 MG   0 0-1    1 MG   0 0 1
   1 MG   8     3.6592     6.9150    2 O    0 0 0    2 O   -1-1 1    2 O   -1 1-1
                                     2 O    1-1-1    2 O   -2 0 0    2 O    0-2 0
                                     2 O    0 0-2    2 O   -1-1-1
   1 MG   6     4.2253     7.9847    1 MG  -1-1 1    1 MG   1 1-1    1 MG  -1 1-1
                                     1 MG   1-1 1    1 MG  -1 1 1    1 MG   1-1-1
   1 MG  24     4.7241     8.9272    2 O    1 0-1    2 O   -1 0 1    2 O    1-1 0
                                     2 O   -1 1 0    2 O    0 1-1    2 O    0-1 1
                                     2 O   -2 0 1    2 O   -2 1 0    2 O    1 0-2
                                     2 O    1-2 0    2 O    0-2 1    2 O    0 1-2
                                     2 O   -2-1 1    2 O   -2 1-1    2 O   -1-2 1
                                     2 O   -1 1-2    2 O    1-1-2    2 O    1-2-1
                                     2 O   -2-1 0    2 O   -2 0-1    2 O   -1-2 0
                                     2 O   -1 0-2    2 O    0-2-1    2 O    0-1-2
   1 MG  24     5.1749     9.7792    1 MG  -2 0 1    1 MG   2 0-1    1 MG  -2 1 0
                                     1 MG   2-1 0    1 MG  -2 1 1    1 MG   2-1-1
                                     1 MG  -1-1 0    1 MG   1 1 0    1 MG  -1-1 2
                                     1 MG   1 1-2    1 MG  -1 0-1    1 MG   1 0 1
                                     1 MG  -1 0 2    1 MG   1 0-2    1 MG  -1 2-1
                                     1 MG   1-2 1    1 MG  -1 2 0    1 MG   1-2 0
                                     1 MG   0-2 1    1 MG   0 2-1    1 MG   0-1-1
                                     1 MG   0 1 1    1 MG   0-1 2    1 MG   0 1-2

   2 O    6     2.1127     3.9924    1 MG   1 0 0    1 MG   0 1 0    1 MG   0 0 1
                                     1 MG   1 1 0    1 MG   1 0 1    1 MG   0 1 1
   2 O   12     2.9878     5.6460    2 O   -1 0 0    2 O    1 0 0    2 O   -1 0 1
[...]
   205.31      18.889     0.14673E-04   176.051  -0.27517084895E+03  -0.27516737311E+03  -0.27517131356E+03
   211.22      18.891     0.15150E-04   175.927  -0.27517081852E+03  -0.27516734239E+03  -0.27517132766E+03
   217.14      18.893     0.15805E-04   175.794  -0.27517078710E+03  -0.27516731065E+03  -0.27517134270E+03
   223.06      18.894     0.16664E-04   175.660  -0.27517075473E+03  -0.27516727794E+03  -0.27517135862E+03
   228.98      18.896     0.17126E-04   175.523  -0.27517072145E+03  -0.27516724431E+03  -0.27517137543E+03
   234.90      18.898     0.17568E-04   175.384  -0.27517068730E+03  -0.27516720980E+03  -0.27517139313E+03
   240.82      18.900     0.17992E-04   175.244  -0.27517065232E+03  -0.27516717445E+03  -0.27517141172E+03
   246.73      18.902     0.18398E-04   175.103  -0.27517061654E+03  -0.27516713830E+03  -0.27517143119E+03
   252.65      18.904     0.18786E-04   174.960  -0.27517058000E+03  -0.27516710138E+03  -0.27517145155E+03
   258.57      18.906     0.19159E-04   174.816  -0.27517054274E+03  -0.27516706373E+03  -0.27517147279E+03
   264.49      18.909     0.19516E-04   174.671  -0.27517050479E+03  -0.27516702538E+03  -0.27517149491E+03
   270.41      18.911     0.19858E-04   174.524  -0.27517046617E+03  -0.27516698635E+03  -0.27517151791E+03
   276.33      18.913     0.20186E-04   174.376  -0.27517042692E+03  -0.27516694669E+03  -0.27517154177E+03
   282.24      18.915     0.20502E-04   174.228  -0.27517038707E+03  -0.27516690642E+03  -0.27517156649E+03
   288.16      18.918     0.20804E-04   174.078  -0.27517034663E+03  -0.27516686555E+03  -0.27517159207E+03
   294.08      18.920     0.21099E-04   173.928  -0.27517030564E+03  -0.27516682413E+03  -0.27517161850E+03
   300.00      18.922     0.21097E-04   173.777  -0.27517026412E+03  -0.27516678217E+03  -0.27517164578E+03

 *******************************************************************************
 LINEAR THERMAL EXPANSION OF CONVENTIONAL LATTICE PARAMETERS
 *******************************************************************************


    T (K)    a (Ang)    ALPHA_a (1/K)   b (Ang)    ALPHA_b (1/K)   c (Ang)    ALPHA_c (1/K)

    10.00   4.22611765   0.00000E+00   4.22611765   0.00000E+00   4.22611765   0.00000E+00
    15.92   4.22611765  -0.10927E-12   4.22611765  -0.10927E-12   4.22611765  -0.10927E-12
    21.84   4.22611765  -0.44919E-11   4.22611765  -0.44919E-11   4.22611765  -0.44919E-11
    27.76   4.22611765  -0.72465E-11   4.22611765  -0.72465E-11   4.22611765  -0.72465E-11
    33.67   4.22611765   0.39418E-10   4.22611765   0.39418E-10   4.22611765   0.39418E-10
    39.59   4.22611766   0.75261E-09   4.22611766   0.75261E-09   4.22611766   0.75261E-09
    45.51   4.22611771   0.42295E-08   4.22611771   0.42295E-08   4.22611771   0.42295E-08
    51.43   4.22611793   0.14644E-07   4.22611793   0.14644E-07   4.22611793   0.14644E-07
    57.35   4.22611856   0.38003E-07   4.22611856   0.38003E-07   4.22611856   0.38003E-07
    63.27   4.22611999   0.80745E-07   4.22611999   0.80745E-07   4.22611999   0.80745E-07
    69.18   4.22612280   0.14842E-06   4.22612280   0.14842E-06   4.22612280   0.14842E-06
    75.10   4.22612765   0.24462E-06   4.22612765   0.24462E-06   4.22612765   0.24462E-06
    81.02   4.22613528   0.37064E-06   4.22613528   0.37064E-06   4.22613528   0.37064E-06
    86.94   4.22614643   0.52572E-06   4.22614643   0.52572E-06   4.22614643   0.52572E-06
    92.86   4.22616180   0.71676E-06   4.22616180   0.71676E-06   4.22616180   0.71676E-06
    98.78   4.22618201   0.91889E-06   4.22618201   0.91889E-06   4.22618201   0.91889E-06
   104.69   4.22620759   0.11401E-05   4.22620759   0.11401E-05   4.22620759   0.11401E-05
   110.61   4.22623897   0.13763E-05   4.22623897   0.13763E-05   4.22623897   0.13763E-05
   116.53   4.22627646   0.16236E-05   4.22627646   0.16236E-05   4.22627646   0.16236E-05
   122.45   4.22632029   0.18783E-05   4.22632029   0.18783E-05   4.22632029   0.18783E-05
   128.37   4.22637059   0.21371E-05   4.22637059   0.21371E-05   4.22637059   0.21371E-05
   134.29   4.22642742   0.23971E-05   4.22642742   0.23971E-05   4.22642742   0.23971E-05
   140.20   4.22649077   0.26560E-05   4.22649077   0.26560E-05   4.22649077   0.26560E-05
   146.12   4.22656059   0.29118E-05   4.22656059   0.29118E-05   4.22656059   0.29118E-05
   152.04   4.22663676   0.31628E-05   4.22663676   0.31628E-05   4.22663676   0.31628E-05
   157.96   4.22671915   0.34080E-05   4.22671915   0.34080E-05   4.22671915   0.34080E-05
   163.88   4.22680760   0.36464E-05   4.22680760   0.36464E-05   4.22680760   0.36464E-05
   169.80   4.22690192   0.38774E-05   4.22690192   0.38774E-05   4.22690192   0.38774E-05
   175.71   4.22700193   0.41004E-05   4.22700193   0.41004E-05   4.22700193   0.41004E-05
   181.63   4.22710741   0.43153E-05   4.22710741   0.43153E-05   4.22710741   0.43153E-05
   187.55   4.22721815   0.45219E-05   4.22721815   0.45219E-05   4.22721815   0.45219E-05
   193.47   4.22733397   0.47203E-05   4.22733397   0.47203E-05   4.22733397   0.47203E-05
   199.39   4.22745463   0.47837E-05   4.22745463   0.47837E-05   4.22745463   0.47837E-05
   205.31   4.22757995   0.48908E-05   4.22757995   0.48908E-05   4.22757995   0.48908E-05
   211.22   4.22769341   0.50497E-05   4.22769341   0.50497E-05   4.22769341   0.50497E-05
   217.14   4.22782643   0.52684E-05   4.22782643   0.52684E-05   4.22782643   0.52684E-05
   223.06   4.22796355   0.55546E-05   4.22796355   0.55546E-05   4.22796355   0.55546E-05
   228.98   4.22810461   0.57086E-05   4.22810461   0.57086E-05   4.22810461   0.57086E-05
   234.90   4.22824944   0.58560E-05   4.22824944   0.58560E-05   4.22824944   0.58560E-05
   240.82   4.22839787   0.59972E-05   4.22839787   0.59972E-05   4.22839787   0.59972E-05
   246.73   4.22854976   0.61324E-05   4.22854976   0.61324E-05   4.22854976   0.61324E-05
   252.65   4.22870497   0.62620E-05   4.22870497   0.62620E-05   4.22870497   0.62620E-05
   258.57   4.22886334   0.63861E-05   4.22886334   0.63861E-05   4.22886334   0.63861E-05
   264.49   4.22902475   0.65051E-05   4.22902475   0.65051E-05   4.22902475   0.65051E-05
   270.41   4.22918909   0.66192E-05   4.22918909   0.66192E-05   4.22918909   0.66192E-05
   276.33   4.22935622   0.67287E-05   4.22935622   0.67287E-05   4.22935622   0.67287E-05
   282.24   4.22952603   0.68338E-05   4.22952603   0.68338E-05   4.22952603   0.68338E-05
   288.16   4.22969843   0.69347E-05   4.22969843   0.69347E-05   4.22969843   0.69347E-05
   294.08   4.22987330   0.70329E-05   4.22987330   0.70329E-05   4.22987330   0.70329E-05
   300.00   4.23005056   0.70328E-05   4.23005056   0.70328E-05   4.23005056   0.70328E-05

 *******************************************************************************
 THERMAL PROPERTIES FROM HELMHOLTZ FREE ENERGY AT P =   0.903 GPa
 *******************************************************************************


    T (K)    V (Ang^3)    ALPHA (1/K)   B (GPa)     U (Ha/cell)        H (Ha/cell)         F (Ha/cell)

    10.00      18.859     0.00000E+00   178.268  -0.27517118970E+03  -0.27516728566E+03  -0.27517118970E+03
    15.92      18.859    -0.69271E-12   178.268  -0.27517118970E+03  -0.27516728566E+03  -0.27517118970E+03
    21.84      18.859    -0.18359E-10   178.268  -0.27517118970E+03  -0.27516728566E+03  -0.27517118970E+03
    27.76      18.859    -0.19876E-10   178.268  -0.27517118970E+03  -0.27516728566E+03  -0.27517118970E+03
    33.67      18.859     0.12124E-09   178.268  -0.27517118970E+03  -0.27516728566E+03  -0.27517118970E+03
    39.59      18.859     0.22039E-08   178.268  -0.27517118970E+03  -0.27516728565E+03  -0.27517118970E+03
    45.51      18.859     0.12487E-07   178.268  -0.27517118968E+03  -0.27516728564E+03  -0.27517118970E+03
    51.43      18.859     0.43348E-07   178.267  -0.27517118963E+03  -0.27516728559E+03  -0.27517118970E+03
    57.35      18.859     0.11269E-06   178.266  -0.27517118949E+03  -0.27516728544E+03  -0.27517118972E+03
    63.27      18.859     0.23977E-06   178.261  -0.27517118916E+03  -0.27516728511E+03  -0.27517118976E+03
    69.18      18.859     0.44122E-06   178.254  -0.27517118850E+03  -0.27516728445E+03  -0.27517118986E+03
    75.10      18.859     0.72789E-06   178.243  -0.27517118738E+03  -0.27516728331E+03  -0.27517119003E+03
    81.02      18.859     0.11038E-05   178.226  -0.27517118560E+03  -0.27516728151E+03  -0.27517119032E+03
    86.94      18.859     0.15666E-05   178.203  -0.27517118301E+03  -0.27516727889E+03  -0.27517119079E+03
    92.86      18.860     0.21374E-05   178.173  -0.27517117943E+03  -0.27516727527E+03  -0.27517119147E+03
    98.78      18.860     0.27415E-05   178.136  -0.27517117472E+03  -0.27516727050E+03  -0.27517119244E+03
   104.69      18.860     0.34028E-05   178.091  -0.27517116876E+03  -0.27516726447E+03  -0.27517119374E+03
   110.61      18.861     0.41095E-05   178.040  -0.27517116144E+03  -0.27516725707E+03  -0.27517119544E+03
   116.53      18.861     0.48496E-05   177.980  -0.27517115270E+03  -0.27516724822E+03  -0.27517119759E+03
   122.45      18.862     0.56120E-05   177.914  -0.27517114248E+03  -0.27516723788E+03  -0.27517120024E+03
   128.37      18.862     0.63869E-05   177.841  -0.27517113074E+03  -0.27516722600E+03  -0.27517120344E+03
   134.29      18.863     0.71657E-05   177.762  -0.27517111747E+03  -0.27516721258E+03  -0.27517120725E+03
   140.20      18.864     0.79413E-05   177.676  -0.27517110268E+03  -0.27516719761E+03  -0.27517121170E+03
   146.12      18.865     0.87077E-05   177.585  -0.27517108638E+03  -0.27516718112E+03  -0.27517121684E+03
   152.04      18.866     0.94603E-05   177.489  -0.27517106859E+03  -0.27516716312E+03  -0.27517122268E+03
   157.96      18.867     0.10195E-04   177.387  -0.27517104935E+03  -0.27516714365E+03  -0.27517122928E+03
   163.88      18.868     0.10910E-04   177.282  -0.27517102869E+03  -0.27516712274E+03  -0.27517123665E+03
   169.80      18.869     0.11603E-04   177.172  -0.27517100665E+03  -0.27516710045E+03  -0.27517124481E+03
   175.71      18.871     0.12272E-04   177.058  -0.27517098329E+03  -0.27516707681E+03  -0.27517125379E+03
   181.63      18.872     0.12916E-04   176.941  -0.27517095864E+03  -0.27516705187E+03  -0.27517126361E+03
   187.55      18.874     0.13536E-04   176.821  -0.27517093276E+03  -0.27516702568E+03  -0.27517127427E+03
   193.47      18.875     0.14131E-04   176.698  -0.27517090570E+03  -0.27516699829E+03  -0.27517128579E+03
   199.39      18.877     0.14702E-04   176.572  -0.27517087749E+03  -0.27516696976E+03  -0.27517129818E+03
   205.31      18.878     0.15248E-04   176.443  -0.27517084820E+03  -0.27516694012E+03  -0.27517131144E+03
   211.22      18.880     0.15771E-04   176.312  -0.27517081787E+03  -0.27516690943E+03  -0.27517132559E+03
   217.14      18.882     0.16271E-04   176.179  -0.27517078654E+03  -0.27516687772E+03  -0.27517134063E+03
   223.06      18.884     0.16750E-04   176.043  -0.27517075425E+03  -0.27516684506E+03  -0.27517135655E+03
   228.98      18.886     0.17206E-04   175.907  -0.27517072106E+03  -0.27516681147E+03  -0.27517137336E+03
   234.90      18.888     0.17251E-04   175.768  -0.27517068699E+03  -0.27516677700E+03  -0.27517139106E+03
   240.82      18.890     0.17435E-04   175.627  -0.27517065210E+03  -0.27516674169E+03  -0.27517140965E+03
   246.73      18.891     0.17784E-04   175.494  -0.27517061640E+03  -0.27516670562E+03  -0.27517142908E+03
   252.65      18.894     0.18323E-04   175.351  -0.27517057995E+03  -0.27516666874E+03  -0.27517144944E+03
   258.57      18.896     0.19077E-04   175.208  -0.27517054278E+03  -0.27516663113E+03  -0.27517147068E+03
   264.49      18.898     0.19434E-04   175.063  -0.27517050491E+03  -0.27516659282E+03  -0.27517149280E+03
   270.41      18.900     0.19775E-04   174.916  -0.27517046638E+03  -0.27516655383E+03  -0.27517151579E+03
   276.33      18.902     0.20103E-04   174.769  -0.27517042722E+03  -0.27516651421E+03  -0.27517153965E+03
   282.24      18.905     0.20418E-04   174.621  -0.27517038745E+03  -0.27516647397E+03  -0.27517156437E+03
   288.16      18.907     0.20720E-04   174.472  -0.27517034711E+03  -0.27516643315E+03  -0.27517158995E+03
   294.08      18.909     0.21013E-04   174.322  -0.27517030621E+03  -0.27516639177E+03  -0.27517161638E+03
   300.00      18.912     0.21011E-04   174.171  -0.27517026477E+03  -0.27516634984E+03  -0.27517164365E+03

 *******************************************************************************
 LINEAR THERMAL EXPANSION OF CONVENTIONAL LATTICE PARAMETERS
 *******************************************************************************


    T (K)    a (Ang)    ALPHA_a (1/K)   b (Ang)    ALPHA_b (1/K)   c (Ang)    ALPHA_c (1/K)

    10.00   4.22531305   0.00000E+00   4.22531305   0.00000E+00   4.22531305   0.00000E+00
    15.92   4.22531305  -0.23090E-12   4.22531305  -0.23090E-12   4.22531305  -0.23090E-12
    21.84   4.22531305  -0.61195E-11   4.22531305  -0.61195E-11   4.22531305  -0.61195E-11
    27.76   4.22531305  -0.66251E-11   4.22531305  -0.66251E-11   4.22531305  -0.66251E-11
    33.67   4.22531305   0.40412E-10   4.22531305   0.40412E-10   4.22531305   0.40412E-10
    39.59   4.22531305   0.73460E-09   4.22531305   0.73460E-09   4.22531305   0.73460E-09
    45.51   4.22531311   0.41624E-08   4.22531311   0.41624E-08   4.22531311   0.41624E-08
    51.43   4.22531332   0.14449E-07   4.22531332   0.14449E-07   4.22531332   0.14449E-07
    57.35   4.22531394   0.37562E-07   4.22531394   0.37562E-07   4.22531394   0.37562E-07
    63.27   4.22531536   0.79922E-07   4.22531536   0.79922E-07   4.22531536   0.79922E-07
    69.18   4.22531814   0.14707E-06   4.22531814   0.14707E-06   4.22531814   0.14707E-06
    75.10   4.22532295   0.24263E-06   4.22532295   0.24263E-06   4.22532295   0.24263E-06
    81.02   4.22533052   0.36791E-06   4.22533052   0.36791E-06   4.22533052   0.36791E-06
    86.94   4.22534159   0.52220E-06   4.22534159   0.52220E-06   4.22534159   0.52220E-06
    92.86   4.22535686   0.71246E-06   4.22535686   0.71246E-06   4.22535686   0.71246E-06
    98.78   4.22537694   0.91380E-06   4.22537694   0.91380E-06   4.22537694   0.91380E-06
   104.69   4.22540238   0.11343E-05   4.22540238   0.11343E-05   4.22540238   0.11343E-05
   110.61   4.22543360   0.13698E-05   4.22543360   0.13698E-05   4.22543360   0.13698E-05
   116.53   4.22547091   0.16165E-05   4.22547091   0.16165E-05   4.22547091   0.16165E-05
   122.45   4.22551454   0.18706E-05   4.22551454   0.18706E-05   4.22551454   0.18706E-05
   128.37   4.22556463   0.21289E-05   4.22556463   0.21289E-05   4.22556463   0.21289E-05
   134.29   4.22562124   0.23885E-05   4.22562124   0.23885E-05   4.22562124   0.23885E-05
   140.20   4.22568436   0.26470E-05   4.22568436   0.26470E-05   4.22568436   0.26470E-05
   146.12   4.22575393   0.29025E-05   4.22575393   0.29025E-05   4.22575393   0.29025E-05
   152.04   4.22582986   0.31534E-05   4.22582986   0.31534E-05   4.22582986   0.31534E-05
   157.96   4.22591199   0.33984E-05   4.22591199   0.33984E-05   4.22591199   0.33984E-05
   163.88   4.22600018   0.36366E-05   4.22600018   0.36366E-05   4.22600018   0.36366E-05
   169.80   4.22609424   0.38675E-05   4.22609424   0.38675E-05   4.22609424   0.38675E-05
   175.71   4.22619397   0.40905E-05   4.22619397   0.40905E-05   4.22619397   0.40905E-05
   181.63   4.22629918   0.43054E-05   4.22629918   0.43054E-05   4.22629918   0.43054E-05
   187.55   4.22640966   0.45120E-05   4.22640966   0.45120E-05   4.22640966   0.45120E-05
   193.47   4.22652520   0.47104E-05   4.22652520   0.47104E-05   4.22652520   0.47104E-05
   199.39   4.22664560   0.49006E-05   4.22664560   0.49006E-05   4.22664560   0.49006E-05
   205.31   4.22677065   0.50827E-05   4.22677065   0.50827E-05   4.22677065   0.50827E-05
   211.22   4.22690015   0.52570E-05   4.22690015   0.52570E-05   4.22690015   0.52570E-05
   217.14   4.22703391   0.54237E-05   4.22703391   0.54237E-05   4.22703391   0.54237E-05
   223.06   4.22717174   0.55831E-05   4.22717174   0.55831E-05   4.22717174   0.55831E-05
   228.98   4.22731347   0.57353E-05   4.22731347   0.57353E-05   4.22731347   0.57353E-05
   234.90   4.22745892   0.57504E-05   4.22745892   0.57504E-05   4.22745892   0.57504E-05
   240.82   4.22760792   0.58116E-05   4.22760792   0.58116E-05   4.22760792   0.58116E-05
   246.73   4.22774355   0.59278E-05   4.22774355   0.59278E-05   4.22774355   0.59278E-05
   252.65   4.22789806   0.61075E-05   4.22789806   0.61075E-05   4.22789806   0.61075E-05
   258.57   4.22805572   0.63590E-05   4.22805572   0.63590E-05   4.22805572   0.63590E-05
   264.49   4.22821642   0.64777E-05   4.22821642   0.64777E-05   4.22821642   0.64777E-05
   270.41   4.22838004   0.65916E-05   4.22838004   0.65916E-05   4.22838004   0.65916E-05
   276.33   4.22854644   0.67009E-05   4.22854644   0.67009E-05   4.22854644   0.67009E-05
   282.24   4.22871552   0.68057E-05   4.22871552   0.68057E-05   4.22871552   0.68057E-05
   288.16   4.22888718   0.69065E-05   4.22888718   0.69065E-05   4.22888718   0.69065E-05
   294.08   4.22906131   0.70044E-05   4.22906131   0.70044E-05   4.22906131   0.70044E-05
   300.00   4.22923782   0.70043E-05   4.22923782   0.70043E-05   4.22923782   0.70043E-05
 TTTTTTTTTTTTTTTTTTTTTTTTTTTTTT END         TELAPSE      512.51 TCPU      512.47
 EEEEEEEEEE TERMINATION  DATE 12 09 2024 TIME 14:46:15.8
NODE    0 CPU TIME =       512.466
    TOTAL CPU TIME =       512.466
Thu 12 Sep 2024 02:46:15 PM CEST
total 295720
-rw-r--r-- 1 erba users         0 Sep 12 14:37 dffit3.dat
-rw-r--r-- 1 erba users      3472 Sep 12 14:45 diis_err1.pe0
-rw-r--r-- 1 erba users      5208 Sep 12 14:45 diis_err2.pe0
-rw-r--r-- 1 erba users    122912 Sep 12 14:45 diis_Fg
-rw-r--r-- 1 erba users         0 Sep 12 14:37 diis_Sk.pe0
-rw-r--r-- 1 erba users      3348 Sep 12 14:46 EOSINFO.DAT
-rw-r--r-- 1 erba users      1332 Sep 12 14:44 FORCES.DAT
-rw-r--r-- 1 erba users        40 Sep 12 14:46 fort.10.pe0
-rw-r--r-- 1 erba users     30728 Sep 12 14:45 fort.11.pe0
-rw-r--r-- 1 erba users    178048 Sep 12 14:45 fort.12
-rw-r--r-- 1 erba users    197248 Sep 12 14:45 fort.13
-rw-r--r-- 1 erba users         0 Sep 12 14:37 fort.18.pe0
-rw-r--r-- 1 erba users       168 Sep 12 14:46 fort.19.pe0
-rw-r--r-- 1 erba users         0 Sep 12 14:37 fort.1.pe0
-rw-r--r-- 1 erba users    297880 Sep 12 14:45 fort.20
-rw-r--r-- 1 erba users     20548 Sep 12 14:45 fort.21
-rw-r--r-- 1 erba users         0 Sep 12 14:39 fort.28
-rw-r--r-- 1 erba users         0 Sep 12 14:37 fort.28.pe0
-rw-r--r-- 1 erba users         0 Sep 12 14:39 fort.29
-rw-r--r-- 1 erba users         0 Sep 12 14:37 fort.29.pe0
-rw-r--r-- 1 erba users      1945 Sep 12 14:44 fort.33
-rw-r--r-- 1 erba users     12102 Sep 12 14:44 fort.34
-rw-r--r-- 1 erba users         0 Sep 12 14:37 fort.38.pe0
-rw-r--r-- 1 erba users         0 Sep 12 14:37 fort.3.pe0
-rw-r--r-- 1 erba users         0 Sep 12 14:37 fort.40.pe0
-rw-r--r-- 1 erba users     44592 Sep 12 14:46 fort.61.pe0
-rw-r--r-- 1 erba users     32008 Sep 12 14:46 fort.62.pe0
-rw-r--r-- 1 erba users         0 Sep 12 14:37 fort.82.pe0
-rw-r--r-- 1 erba users         0 Sep 12 14:37 fort.83.pe0
-rw-r--r-- 1 erba users    541560 Sep 12 14:45 fort.8.pe0
-rw-r--r-- 1 erba users    297880 Sep 12 14:45 fort.9
-rw-r--r-- 1 erba users     33744 Sep 12 14:45 fort.95.pe0
-rw-r--r-- 1 erba users    755738 Sep 12 14:44 fort.98
-rw-r--r-- 1 erba users    100117 Sep 12 14:46 FREQINFO.DAT
-rw-r--r-- 1 erba users       765 Sep 12 14:46 HESSFREQ.DAT
-rw-r--r-- 1 erba users       199 Sep 12 14:37 INPUT
-rw-r--r-- 1 erba users         0 Sep 12 14:39 MULLIKEN.DAT
-rw-r--r-- 1 erba users     12102 Sep 12 14:44 optc001
-rwxr-xr-x 1 erba users 300056536 Sep 12 14:37 Pcrystal-475128
lrwxrwxrwx 1 erba users        67 Sep 12 14:37 SCFOUT.LOG -> /home/erba/Mitoli/MSSC2024/QHA/MgO_primitive/MgO_primitive_QHA.out2
