date Mon 16 Apr 17:26:41 BST 2018
master hostname nhpc16
system Linux nhpc16 4.4.74-18.20-default #1 SMP Fri Jun 30 19:01:19 UTC 2017 (b5079b8) x86_64 x86_64 x86_64 GNU/Linux
user giuseppe
output data in /home/giuseppe/Urea/urea_cry_trho.outp
properties in /prog/x86_64/crystal/CRYSTAL17/bin/Linux-ifort/intel-suite___2016.3
input data in /home/giuseppe/Urea/urea_cry_trho.d3
temporary directory /local/giuseppe//tmp_p1992_giuseppe
wave function data from /home/giuseppe/Urea/urea_cry.f9
wave function formatted data from /home/giuseppe/Urea/urea_cry.f98
TOPO
TRHO
-1                          IAUTO=-1
1,0,1,0,20,10,7.,0.         IEXT, ICRIT, IBPAT, IPRINT, NSTEP, NNB, RMAX, TH
END

         
 *******************************************************************************
 *                                                                             *
 *                               CRYSTAL17                                     *
 *                      public : 1.0.1 - Feb 1st, 2017                         *
 *                       HTTP://WWW.CRYSTAL.UNITO.IT                           *
 *                                                                             *
 *                              MAIN AUTHORS                                   *
 *                                                                             *
 *  R. DOVESI(1,11), V.R. SAUNDERS(2), C. ROETTI(1,11), R. ORLANDO(1,11),      *
 *  C.M. ZICOVICH-WILSON(1,3), F. PASCALE(4), B. CIVALLERI(1,11),              *
 *  K. DOLL(5), N.M. HARRISON(2,6), I.J. BUSH(7), Ph. D'ARCO(8),               *
 *  M. LLUNELL(9), M. CAUSA'(10), Y. NOEL(8), L. MASCHIO(1,11), A. ERBA(1,11)  *
 *  M. RE'RAT(14), S. CASASSA(1,11)                                            *
 *                                                                             *
 *        CONTRIBUTIONS TO THE CODE HAVE ALSO BEEN GIVEN BY                    *
 *                                                                             *
 *  M. FERRABONE(1,11), M. DE LA PIERRE(1,11), M. FERRERO(1,11),               *
 *  J. BAIMA(1,11), E. ALBANESE(1,11), M.F. PEINTINGER(12), R. BAST(13),       *
 *  B. KIRTMAN(15), V. LACIVITA(1,11), R. DEMICHELIS(1,16)                     *
 *  G. BRANDEBURG(17), S. SALUSTRO(1,11), G. SANSONE(1,11)                     *
 *  M.T. RUGGIERO(18)                                                          *
 *                                                                             *
 * (1) THEORETICAL CHEMISTRY GROUP - UNIVERSITA' DI TORINO - TORINO (ITALY)    *

 * (2) COMPUTATIONAL SCIENCE & ENGINEERING DEPARTMENT - STFC DARESBURY (UK)    *
 * (3) UNIVERSIDAD AUTONOMA DEL ESTADO DE MORELOS - CUERNAVACA (MEXICO)        *
 * (4) UNIVERSITE' DE LORRAINE - NANCY (FRANCE)                                *
 * (5) UNIVERSITAET STUTTGART- STUTTGART (GERMANY)                             *
 * (6) IMPERIAL COLLEGE - LONDON (UK)                                          *
 * (7) OXFORD E-RESEARCH CENTRE - OXFORD (UK)                                  *
 * (8) UPMC - SORBONNE UNIVERSITES - PARIS (FRANCE)                            *
 * (9) UNIVERSIDAD DE BARCELONA - BARCELONA (SPAIN)                            *
 *(10) UNIVERSITA' DI NAPOLI "FEDERICO II" - NAPOLI (ITALY)                    *
 *(11) NIS - NANOSTRUCTURED INTERFACES AND SURFACES - TORINO (ITALY)           *
 *(12) MPI FUER CHEMISCHE ENERGIEKONVERSION - MUELHEIM AN DER RUHR (GERMANY)   *
 *(13) UNIVERSITY OF TROMSO - TROMSO (NORWAY)                                  *
 *(14) UNIVERSITE' DE PAU ET DES PAYS DE L'ADOUR - PAU (FRANCE)                *
 *(15) UNIVERSITY OF CALIFORNIA SANTA BARBARA - SANTA BARBARA (USA)            *
 *(16) CURTIN UNIVERSITY - PERTH (AUSTRALIA)                                   *
 *(17) UNIVERSITY COLLEGE LONDON - LONDON (UK)                                 *
 *(18) CAMBRIDGE UNIVERSITY - CAMBRIDGE (UK)                                   *
 *                                                                             *
 *******************************************************************************
 EEEEEEEEEE STARTING  DATE 16 04 2018 TIME 17:26:41.4

 *******************************************************************************
 TEST12 - UREA BULK BASE 6-21 + POLARIZATION                                     
 CRYSTAL - PROPERTIES - TYPE OF CALCULATION :  RESTRICTED CLOSED SHELL
 *******************************************************************************
 HARTREE-FOCK HAMILTONIAN

 DIRECT LATTICE VECTOR COMPONENTS (ANGSTROM)
         5.56500    0.00000    0.00000
         0.00000    5.56500    0.00000
         0.00000    0.00000    4.68400

 LATTICE PARAMETERS  (ANGSTROM AND DEGREES) - PRIMITIVE CELL
       A          B          C         ALPHA      BETA     GAMMA        VOLUME
    5.56500    5.56500    4.68400     90.0000   90.0000   90.0000     145.05985
 *******************************************************************************
 N. OF ATOMS PER CELL        16 COULOMB OVERLAP TOL          (T1) 10**   -6
 NUMBER OF SHELLS            56 COULOMB PENETRATION TOL      (T2) 10**   -6
 NUMBER OF AO               152 EXCHANGE OVERLAP TOL         (T3) 10**   -6
 N. OF ELECTRONS PER CELL    64 EXCHANGE PSEUDO OVP (F(G))   (T4) 10**   -6
 CORE ELECTRONS PER CELL     16 EXCHANGE PSEUDO OVP (P(G))   (T5) 10**  -12
 N. OF SYMMETRY OPERATORS     8 POLE ORDER IN MONO ZONE                   4
 *******************************************************************************
   ATOM N.AT.  SHELL    X(A)      Y(A)      Z(A)      EXAD       N.ELECT.
 *******************************************************************************
    1    6 C     4     0.000     2.783     1.527   8.000E-01       4.804
    2    6 C     4     2.783     0.000    -1.527   8.000E-01       4.804
    3    8 O     4     0.000     2.783    -1.896   8.000E-01       8.780
    4    8 O     4     2.783     0.000     1.896   8.000E-01       8.780
    5    7 N     4     0.812    -1.971     0.827   8.000E-01       7.749
    6    7 N     4    -0.812     1.971     0.827   8.000E-01       7.749
    7    7 N     4    -1.971    -0.812    -0.827   8.000E-01       7.749
    8    7 N     4     1.971     0.812    -0.827   8.000E-01       7.749
    9    1 H     3     1.433    -1.350     1.324   1.100E+00       0.730
   10    1 H     3    -1.433     1.350     1.324   1.100E+00       0.730
   11    1 H     3    -1.350    -1.433    -1.324   1.100E+00       0.730
   12    1 H     3     1.350     1.433    -1.324   1.100E+00       0.730
   13    1 H     3     0.802    -1.981    -0.178   1.100E+00       0.729
   14    1 H     3    -0.802     1.981    -0.178   1.100E+00       0.729
   15    1 H     3    -1.981    -0.802     0.178   1.100E+00       0.729
   16    1 H     3     1.981     0.802     0.178   1.100E+00       0.729
 *******************************************************************************
 DE(K)                   0.000E+00  ENERGY LEVEL SHIFTING        0.00000
 TOTAL ENERGY -4.4768124600179E+02  CONVERGENCE ON ENER       -1.766E-08
 KIN. ENERGY   4.4702060519671E+02  VIR. COEFF.           9.99261608E-01
 N. OF SCF CYCLES               10  FERMI ENERGY              -0.384E+00
 WEIGHT OF F(I) IN F(I+1)      30
 SHRINK. FACT.(MONKH.)     2  2  2  SHRINKING FACTOR(GILAT NET)        2
 NUMBER OF K POINTS IN THE IBZ   6  CELL VOLUME (A.U.)        978.912403
 *******************************************************************************

 GCALCO - MAX INDICES DIRECT LATTICE VECTOR    14    14    16
 NO.OF VECTORS CREATED 6999 STARS  525 RMAX   117.81283 BOHR
 TTTTTTTTTTTTTTTTTTTTTTTTTTTTTT gordsh1     TELAPSE        0.04 TCPU        0.00

 MATRIX SIZE: P(G)  108364, F(G)   18098, P(G) IRR   10907, F(G) IRR    4245
 MAX G-VECTOR INDEX FOR 1- AND 2-ELECTRON INTEGRALS  81


 CAPPA:IS1  2;IS2  2;IS3  2; K PTS MONK NET   6; SYMMOPS:K SPACE  16;G SPACE   8

 *******************************************************************************
 *                                                                             *
 *                              T O P O N D  2 0 1 3                           *
 *                                                                             *
 *           AN ELECTRON DENSITY TOPOLOGICAL ANALYSIS PROGRAM FOR              *
 *                 SYSTEMS PERIODIC IN N (N=0-3) DIMENSIONS                    *
 *                                                                             *
 *               USER MANUAL BY CARLO GATTI AND SILVIA CASASSA                 *
 *                                                                             *
 *            CNR-ISTM, ISTITUTO DI SCIENZE E TECNOLOGIE MOLECOLARI            *
 *                   VIA GOLGI 19  - I-20133 MILANO - ITALIA                   *
 *                     E-MAIL: c.gatti@istm.cnr.it                             *
 *                                                                             *
 *******************************************************************************

  TOPOND PARAMETER 

  LIM016 [INF24]        =       1000
  LIM015 [INF20]        =         56
  LIM035 [LIM016*INF5]  =     525000
  NTOMAX [LIM016*INF5]  =     525000
  INF79  [INF79]        =       6999
  MAXGSTAR [INF2*INF5]  =        384

 *******************************************************************************

CRYSTAL INFORMATION ON THE REFERENCE SYSTEM:

 DIRECT LATTICE VECTOR COMPONENTS (BOHR)
        10.51633    0.00000    0.00000
         0.00000   10.51633    0.00000
         0.00000    0.00000    8.85148

 LATTICE PARAMETERS  (BOHR AND DEGREES) - PRIMITIVE CELL
        A           B           C        ALPHA        BETA       GAMMA       VOLUME
    10.51633    10.51633     8.85148    90.00000    90.00000    90.00000   978.91240
 *******************************************************************************
 N. OF ATOMS PER CELL       16  COULOMB OVERLAP TOL         (T1) 10** -6
 NUMBER OF SHELLS           56  COULOMB PENETRATION TOL     (T2) 10** -6
 NUMBER OF AO              152  EXCHANGE OVERLAP TOL        (T3) 10** -6
 N. OF ELECTRONS PER CELL    64 EXCHANGE PSEUDO OVP (F(G))  (T4) 10** -6
 CORE ELECTRONS PER CELL    16  EXCHANGE PSEUDO OVP (P(G))  (T5) 10**-12
 N. OF SYMMETRY OPERATORS    8  POLE ORDER IN MONO ZONE                4
 *******************************************************************************
  ATOM  SHEL    X(AU)     Y(AU)     Z(AU)
 *******************************************************************************
    6 C    4     0.000     5.258     2.886
    6 C    4     5.258     0.000    -2.886
    8 O    4     0.000     5.258    -3.582
    8 O    4     5.258     0.000     3.582
    7 N    4     1.534    -3.724     1.563
    7 N    4    -1.534     3.724     1.563
    7 N    4    -3.724    -1.534    -1.563
    7 N    4     3.724     1.534    -1.563
    1 H    3     2.708    -2.550     2.502
    1 H    3    -2.708     2.550     2.502
    1 H    3    -2.550    -2.708    -2.502
    1 H    3     2.550     2.708    -2.502
    1 H    3     1.515    -3.743    -0.336
    1 H    3    -1.515     3.743    -0.336
    1 H    3    -3.743    -1.515     0.336
    1 H    3     3.743     1.515     0.336
 *******************************************************************************
 DE(K)                  0.000E+00  CONVERGENCE ON EIGENVALUES   10**-17
 WEIGHT OF F(I) IN F(I+1)     30%  CONVERGENCE ON ENERGY        10**- 7
 TOTAL ENERGY     -4.47681246E+02  FERMI ENERGY              -3.844E-01
 KIN. ENERGY       4.47020605E+02  VIR. COEFF.           9.99261608E-01
 SHRINK. FACT.(MONKH.)    2  2  2  STARS FOR FOURIER EXP. OF E(K)     1
 SHRINKING FACTOR (GILAT NET)   2  NUMBER OF K POINTS IN THE IBZ      6
 CELL VOLUME (A.U.)         978.912N. OF SCF CYCLES                  10
 ENERGY LEVEL SHIFTING    0.00000
 *******************************************************************************

 NEIGHBORS OF THE NON-EQUIVALENT ATOMS

 N = NUMBER OF NEIGHBORS AT DISTANCE R
    ATOM  N     R/ANG      R/AU   NEIGHBORS (ATOM LABELS AND CELL INDICES)

   1 C    1     1.2614     2.3837   3 O    0 0 1
   1 C    2     1.3447     2.5411   5 N    0 1 0   6 N    0 0 0
   1 C    2     2.0367     3.8488   9 H    0 1 0  10 H    0 0 0
   1 C    2     2.0477     3.8696  13 H    0 1 0  14 H    0 0 0
   1 C    2     2.6461     5.0004  11 H    0 1 1  12 H    0 0 1
   1 C    2     3.1089     5.8750  15 H    0 1 0  16 H    0 0 0
   1 C    2     3.1876     6.0237  13 H    0 1 1  14 H    0 0 1
   1 C    1     3.4226     6.4678   3 O    0 0 0
   1 C    2     3.4310     6.4836  11 H    0 1 0  12 H    0 0 0
   1 C    2     3.6324     6.8642   7 N    0 1 1   8 N    0 0 1

   3 O    1     1.2614     2.3837   1 C    0 0-1
   3 O    2     1.9922     3.7647  11 H    0 1 0  12 H    0 0 0
   3 O    2     2.0582     3.8895  13 H    0 1 0  14 H    0 0 0
   3 O    2     2.2726     4.2946   5 N    0 1-1   6 N    0 0-1
   3 O    2     2.5002     4.7246   9 H    0 1-1  10 H    0 0-1
   3 O    2     2.9550     5.5842   5 N    0 1 0   6 N    0 0 0
   3 O    2     2.9846     5.6401   7 N    0 1 0   8 N    0 0 0
   3 O    2     3.1758     6.0013  13 H    0 1-1  14 H    0 0-1
   3 O    1     3.4226     6.4678   1 C    0 0 0
   3 O    2     3.4850     6.5857  15 H    0 1 0  16 H    0 0 0

   5 N    1     1.0053     1.8997  13 H    0 0 0
   5 N    1     1.0092     1.9070   9 H    0 0 0
   5 N    1     1.3447     2.5411   1 C    0-1 0
   5 N    1     2.2726     4.2946   3 O    0-1 1
   5 N    1     2.2965     4.3397   6 N    0-1 0
   5 N    1     2.4939     4.7127  14 H    0-1 0
   5 N    1     2.9550     5.5842   3 O    0-1 0
   5 N    1     2.9846     5.6401   4 O    0 0 0
   5 N    2     3.0780     5.8165  15 H    1 0 0  16 H    0 0 0
   5 N    2     3.0960     5.8506  15 H    0 0 0  16 H    0-1 0

   9 H    1     1.0092     1.9070   5 N    0 0 0
   9 H    1     1.7473     3.3019  13 H    0 0 0
   9 H    1     1.9922     3.7647   4 O    0 0 0
   9 H    1     2.0367     3.8488   1 C    0-1 0
   9 H    2     2.4984     4.7214  15 H    1 0 0  16 H    0 0 0
   9 H    1     2.5002     4.7246   3 O    0-1 1
   9 H    1     2.6461     5.0004   2 C    0 0 1
   9 H    2     3.0966     5.8518   7 N    1 0 0   8 N    0 0 0
   9 H    1     3.2135     6.0726   6 N    0-1 0
   9 H    1     3.3046     6.2449  13 H    0 0 1

  13 H    1     1.0053     1.8997   5 N    0 0 0
  13 H    1     1.7473     3.3019   9 H    0 0 0
  13 H    1     2.0477     3.8696   1 C    0-1 0
  13 H    1     2.0582     3.8895   3 O    0-1 0
  13 H    1     2.2682     4.2862  14 H    0-1 0
  13 H    1     2.4939     4.7127   6 N    0-1 0
  13 H    2     2.4984     4.7214  11 H    0 0 0  12 H    0-1 0
  13 H    4     3.0427     5.7500  15 H    0 0 0  15 H    1 0 0  16 H    0-1 0
                                   16 H    0 0 0
  13 H    2     3.0780     5.8165   7 N    0 0 0   8 N    0-1 0
  13 H    2     3.0960     5.8506   7 N    1 0 0   8 N    0 0 0

 CLUSTERS AROUND EACH OF THE NON-EQUIVALENT ATOMS

 NON-EQUIV. ATOM       1 C (N.      1 IN THE UNIT CELL), CLUSTER OF     18 ATOMS
 NEW  OLD   CELL  AT. NU.         COORD.(AU)             DISTANCE (ANG)
     1       3       0     0     1    8        0.000   5.258   5.269          1.261
     2       5       0     1     0    7        1.534   6.792   1.563          1.345
     3       6       0     0     0    7       -1.534   3.724   1.563          1.345
     4       9       0     1     0    1        2.708   7.966   2.502          2.037
     5      10       0     0     0    1       -2.708   2.550   2.502          2.037
     6      13       0     1     0    1        1.515   6.774  -0.336          2.048
     7      14       0     0     0    1       -1.515   3.743  -0.336          2.048
     8      11       0     1     1    1       -2.550   7.808   6.349          2.646
     9      12       0     0     1    1        2.550   2.708   6.349          2.646
    10      15       0     1     0    1       -3.743   9.001   0.336          3.109
    11      16       0     0     0    1        3.743   1.515   0.336          3.109
    12      13       0     1     1    1        1.515   6.774   8.515          3.188
    13      14       0     0     1    1       -1.515   3.743   8.515          3.188
    14       3       0     0     0    8        0.000   5.258  -3.582          3.423
    15      11       0     1     0    1       -2.550   7.808  -2.502          3.431
    16      12       0     0     0    1        2.550   2.708  -2.502          3.431
    17       7       0     1     1    7       -3.724   8.982   7.288          3.632
    18       8       0     0     1    7        3.724   1.534   7.288          3.632

 NON-EQUIV. ATOM       2 O (N.      3 IN THE UNIT CELL), CLUSTER OF     18 ATOMS
 NEW  OLD   CELL  AT. NU.         COORD.(AU)             DISTANCE (ANG)
     1       1       0     0    -1    6        0.000   5.258  -5.966          1.261
     2      11       0     1     0    1       -2.550   7.808  -2.502          1.992
     3      12       0     0     0    1        2.550   2.708  -2.502          1.992
     4      13       0     1     0    1        1.515   6.774  -0.336          2.058
     5      14       0     0     0    1       -1.515   3.743  -0.336          2.058
     6       5       0     1    -1    7        1.534   6.792  -7.288          2.273
     7       6       0     0    -1    7       -1.534   3.724  -7.288          2.273
     8       9       0     1    -1    1        2.708   7.966  -6.349          2.500
     9      10       0     0    -1    1       -2.708   2.550  -6.349          2.500
    10       5       0     1     0    7        1.534   6.792   1.563          2.955
    11       6       0     0     0    7       -1.534   3.724   1.563          2.955
    12       7       0     1     0    7       -3.724   8.982  -1.563          2.985
    13       8       0     0     0    7        3.724   1.534  -1.563          2.985
    14      13       0     1    -1    1        1.515   6.774  -9.188          3.176
    15      14       0     0    -1    1       -1.515   3.743  -9.188          3.176
    16       1       0     0     0    6        0.000   5.258   2.886          3.423
    17      15       0     1     0    1       -3.743   9.001   0.336          3.485
    18      16       0     0     0    1        3.743   1.515   0.336          3.485

 NON-EQUIV. ATOM       3 N (N.      5 IN THE UNIT CELL), CLUSTER OF     12 ATOMS
 NEW  OLD   CELL  AT. NU.         COORD.(AU)             DISTANCE (ANG)
     1      13       0     0     0    1        1.515  -3.743  -0.336          1.005
     2       9       0     0     0    1        2.708  -2.550   2.502          1.009
     3       1       0    -1     0    6        0.000  -5.258   2.886          1.345
     4       3       0    -1     1    8        0.000  -5.258   5.269          2.273
     5       6       0    -1     0    7       -1.534  -6.792   1.563          2.296
     6      14       0    -1     0    1       -1.515  -6.774  -0.336          2.494
     7       3       0    -1     0    8        0.000  -5.258  -3.582          2.955
     8       4       0     0     0    8        5.258   0.000   3.582          2.985
     9      15       1     0     0    1        6.774  -1.515   0.336          3.078
    10      16       0     0     0    1        3.743   1.515   0.336          3.078
    11      15       0     0     0    1       -3.743  -1.515   0.336          3.096
    12      16       0    -1     0    1        3.743  -9.001   0.336          3.096

 NON-EQUIV. ATOM       4 H (N.      9 IN THE UNIT CELL), CLUSTER OF     12 ATOMS
 NEW  OLD   CELL  AT. NU.         COORD.(AU)             DISTANCE (ANG)
     1       5       0     0     0    7        1.534  -3.724   1.563          1.009
     2      13       0     0     0    1        1.515  -3.743  -0.336          1.747
     3       4       0     0     0    8        5.258   0.000   3.582          1.992
     4       1       0    -1     0    6        0.000  -5.258   2.886          2.037
     5      15       1     0     0    1        6.774  -1.515   0.336          2.498
     6      16       0     0     0    1        3.743   1.515   0.336          2.498
     7       3       0    -1     1    8        0.000  -5.258   5.269          2.500
     8       2       0     0     1    6        5.258   0.000   5.966          2.646
     9       7       1     0     0    7        6.792  -1.534  -1.563          3.097
    10       8       0     0     0    7        3.724   1.534  -1.563          3.097
    11       6       0    -1     0    7       -1.534  -6.792   1.563          3.213
    12      13       0     0     1    1        1.515  -3.743   8.515          3.305

 NON-EQUIV. ATOM       5 H (N.     13 IN THE UNIT CELL), CLUSTER OF     16 ATOMS
 NEW  OLD   CELL  AT. NU.         COORD.(AU)             DISTANCE (ANG)
     1       5       0     0     0    7        1.534  -3.724   1.563          1.005
     2       9       0     0     0    1        2.708  -2.550   2.502          1.747
     3       1       0    -1     0    6        0.000  -5.258   2.886          2.048
     4       3       0    -1     0    8        0.000  -5.258  -3.582          2.058
     5      14       0    -1     0    1       -1.515  -6.774  -0.336          2.268
     6       6       0    -1     0    7       -1.534  -6.792   1.563          2.494
     7      11       0     0     0    1       -2.550  -2.708  -2.502          2.498
     8      12       0    -1     0    1        2.550  -7.808  -2.502          2.498
     9      15       0     0     0    1       -3.743  -1.515   0.336          3.043
    10      15       1     0     0    1        6.774  -1.515   0.336          3.043
    11      16       0     0     0    1        3.743   1.515   0.336          3.043
    12      16       0    -1     0    1        3.743  -9.001   0.336          3.043
    13       7       0     0     0    7       -3.724  -1.534  -1.563          3.078
    14       8       0    -1     0    7        3.724  -8.982  -1.563          3.078
    15       7       1     0     0    7        6.792  -1.534  -1.563          3.096
    16       8       0     0     0    7        3.724   1.534  -1.563          3.096

 *******************************************************************************
         TOPOLOGICAL ANALYSIS OF RHO : UNIQUE ATOM PAIRS CONSIDERED
 *******************************************************************************

 NON EQUIV. ATOM       1  C 

  NEW   SYM  OLD   CELL           COORD. (AU)         DISTANCE (ANG)
      1    O        3        0     0     1      0.000   5.258   5.269         1.261
      2    N        5        0     1     0      1.534   6.792   1.563         1.345
      4    H        9        0     1     0      2.708   7.966   2.502         2.037
      6    H       13        0     1     0      1.515   6.774  -0.336         2.048
      8    H       11        0     1     1     -2.550   7.808   6.349         2.646
     10    H       15        0     1     0     -3.743   9.001   0.336         3.109
     12    H       13        0     1     1      1.515   6.774   8.515         3.188
     14    O        3        0     0     0      0.000   5.258  -3.582         3.423
     15    H       11        0     1     0     -2.550   7.808  -2.502         3.431
     17    N        7        0     1     1     -3.724   8.982   7.288         3.632

 NON EQUIV. ATOM       2  O 

  NEW   SYM  OLD   CELL           COORD. (AU)         DISTANCE (ANG)
      2    H       11        0     1     0     -2.550   7.808  -2.502         1.992
      4    H       13        0     1     0      1.515   6.774  -0.336         2.058
      6    N        5        0     1    -1      1.534   6.792  -7.288         2.273
      8    H        9        0     1    -1      2.708   7.966  -6.349         2.500
     10    N        5        0     1     0      1.534   6.792   1.563         2.955
     12    N        7        0     1     0     -3.724   8.982  -1.563         2.985
     14    H       13        0     1    -1      1.515   6.774  -9.188         3.176
     17    H       15        0     1     0     -3.743   9.001   0.336         3.485

 NON EQUIV. ATOM       3  N 

  NEW   SYM  OLD   CELL           COORD. (AU)         DISTANCE (ANG)
      1    H       13        0     0     0      1.515  -3.743  -0.336         1.005
      2    H        9        0     0     0      2.708  -2.550   2.502         1.009
      5    N        6        0    -1     0     -1.534  -6.792   1.563         2.296
      6    H       14        0    -1     0     -1.515  -6.774  -0.336         2.494
      9    H       15        1     0     0      6.774  -1.515   0.336         3.078
     11    H       15        0     0     0     -3.743  -1.515   0.336         3.096

 NON EQUIV. ATOM       4  H 

  NEW   SYM  OLD   CELL           COORD. (AU)         DISTANCE (ANG)
      2    H       13        0     0     0      1.515  -3.743  -0.336         1.747
      5    H       15        1     0     0      6.774  -1.515   0.336         2.498
      9    N        7        1     0     0      6.792  -1.534  -1.563         3.097
     11    N        6        0    -1     0     -1.534  -6.792   1.563         3.213
     12    H       13        0     0     1      1.515  -3.743   8.515         3.305

 NON EQUIV. ATOM       5  H 

  NEW   SYM  OLD   CELL           COORD. (AU)         DISTANCE (ANG)
      5    H       14        0    -1     0     -1.515  -6.774  -0.336         2.268
      9    H       15        0     0     0     -3.743  -1.515   0.336         3.043


 ************* T O P O L O G I C A L  A N A L I S Y S  O F  R H O *************


 COMPUTATIONAL CONDITIONS :
                           IAUTO                                     :    -1
                           ALGORITHM FOR CP SEARCH                   :    EF
                           DETERMINATION OF BOND PATH ATTRACTORS     :     T
                           MAX.NUM. OF N.R. OR EIG. FOL. STEPS       :    20
                           NEIGHBORS OF EACH NON-EQUIVALENT ATOM     :    10
                           THRESHOLD ON INTERNUC. DISTANCES (ANG)    :   5.0
                           PRINT N.RAPH OR E.FOL. OR PAR. EQ. SEARCH :     F
                           TOTAL NUMBER OF PAIRS CONSIDERED          :    31


 ********************
 SEARCH OF (3,-3) CPS
 ********************

 CP N.      1
 *********

 CP TYPE                        :  (3,-3)
 COORD(AU)  (X  Y  Z)           : -3.5288E-22  5.2582E+00  2.8856E+00
 COORD FRACT. CONV. CELL        : -3.3555E-23  5.0000E-01  3.2600E-01
 PROPERTIES (RHO,GRHO,LAP)      :  1.1795E+02  1.2762E-11 -4.3488E+05
 KINETIC ENERGY DENSITIES (G,K) :  3.0284E+00  1.0872E+05
 VIRIAL DENSITY                 : -1.0873E+05
 ELF(PAA)                       :  1.0000E+00

 SPECTRAL DECOMP. OF THE HESSIAN OF RHO

 EIGENVALUES (L1 L2 L3)         : -1.4496E+05 -1.4496E+05 -1.4496E+05
 EIGENVECTORS                   :  7.0711E-01  0.0000E+00  7.0711E-01
                                  -7.0711E-01 -6.6544E-17  7.0711E-01
                                  -4.7054E-17  1.0000E+00  4.7054E-17


 CLUSTER OF ATOMS AROUND THE CP 
 NEW  OLD   CELL  AT. NU.         COORD.(AU)             DISTANCE (ANG)
     1       1       0     0     0    6        0.000   5.258   2.886          0.000
     2       3       0     0     1    8        0.000   5.258   5.269          1.261
     3       5       0     1     0    7        1.534   6.792   1.563          1.345
     4       6       0     0     0    7       -1.534   3.724   1.563          1.345
     5       9       0     1     0    1        2.708   7.966   2.502          2.037
     6      10       0     0     0    1       -2.708   2.550   2.502          2.037
     7      14       0     0     0    1       -1.515   3.743  -0.336          2.048
     8      13       0     1     0    1        1.515   6.774  -0.336          2.048
     9      11       0     1     1    1       -2.550   7.808   6.349          2.646
    10      12       0     0     1    1        2.550   2.708   6.349          2.646

 CP N.      2
 *********

 CP TYPE                        :  (3,-3)
 COORD(AU)  (X  Y  Z)           :  9.6337E-24  5.2582E+00 -3.5822E+00
 COORD FRACT. CONV. CELL        :  9.1607E-25  5.0000E-01 -4.0470E-01
 PROPERTIES (RHO,GRHO,LAP)      :  2.9153E+02  1.0154E-10 -1.9267E+06
 KINETIC ENERGY DENSITIES (G,K) :  3.0184E+01  4.8171E+05
 VIRIAL DENSITY                 : -4.8174E+05
 ELF(PAA)                       :  1.0000E+00

 SPECTRAL DECOMP. OF THE HESSIAN OF RHO

 EIGENVALUES (L1 L2 L3)         : -6.4225E+05 -6.4224E+05 -6.4224E+05
 EIGENVECTORS                   :  0.0000E+00  7.0711E-01  7.0711E-01
                                   8.9504E-18 -7.0711E-01  7.0711E-01
                                   1.0000E+00  6.3289E-18 -6.3289E-18


 CLUSTER OF ATOMS AROUND THE CP 
 NEW  OLD   CELL  AT. NU.         COORD.(AU)             DISTANCE (ANG)
     1       3       0     0     0    8        0.000   5.258  -3.582          0.000
     2       1       0     0    -1    6        0.000   5.258  -5.966          1.261
     3      11       0     1     0    1       -2.550   7.808  -2.502          1.992
     4      12       0     0     0    1        2.550   2.708  -2.502          1.992
     5      14       0     0     0    1       -1.515   3.743  -0.336          2.058
     6      13       0     1     0    1        1.515   6.774  -0.336          2.058
     7       5       0     1    -1    7        1.534   6.792  -7.288          2.273
     8       6       0     0    -1    7       -1.534   3.724  -7.288          2.273
     9      10       0     0    -1    1       -2.708   2.550  -6.349          2.500
    10       9       0     1    -1    1        2.708   7.966  -6.349          2.500

 CP N.      3
 *********

 CP TYPE                        :  (3,-3)
 COORD(AU)  (X  Y  Z)           :  1.5343E+00 -3.7238E+00  1.5632E+00
 COORD FRACT. CONV. CELL        :  1.4590E-01 -3.5410E-01  1.7660E-01
 PROPERTIES (RHO,GRHO,LAP)      :  1.9130E+02  4.5327E-10 -9.6288E+05
 KINETIC ENERGY DENSITIES (G,K) :  1.1388E+01  2.4073E+05
 VIRIAL DENSITY                 : -2.4074E+05
 ELF(PAA)                       :  1.0000E+00

 SPECTRAL DECOMP. OF THE HESSIAN OF RHO

 EIGENVALUES (L1 L2 L3)         : -3.2096E+05 -3.2096E+05 -3.2096E+05
 EIGENVECTORS                   :  5.9713E-01 -3.7873E-01  7.0711E-01
                                   5.9713E-01 -3.7873E-01 -7.0711E-01
                                  -5.3560E-01 -8.4447E-01 -3.3470E-13


 CLUSTER OF ATOMS AROUND THE CP 
 NEW  OLD   CELL  AT. NU.         COORD.(AU)             DISTANCE (ANG)
     1       5       0     0     0    7        1.534  -3.724   1.563          0.000
     2      13       0     0     0    1        1.515  -3.743  -0.336          1.005
     3       9       0     0     0    1        2.708  -2.550   2.502          1.009
     4       1       0    -1     0    6        0.000  -5.258   2.886          1.345
     5       3       0    -1     1    8        0.000  -5.258   5.269          2.273
     6       6       0    -1     0    7       -1.534  -6.792   1.563          2.296
     7      14       0    -1     0    1       -1.515  -6.774  -0.336          2.494
     8       3       0    -1     0    8        0.000  -5.258  -3.582          2.955
     9       4       0     0     0    8        5.258   0.000   3.582          2.985
    10      16       0     0     0    1        3.743   1.515   0.336          3.078

 CP N.      4
 *********

 CP TYPE                        :  (3,-3)
 COORD(AU)  (X  Y  Z)           :  2.5984E+00 -2.6597E+00  2.4164E+00
 COORD FRACT. CONV. CELL        :  2.4708E-01 -2.5292E-01  2.7299E-01
 PROPERTIES (RHO,GRHO,LAP)      :  3.6193E-01  2.0008E-11 -6.1101E+00
 KINETIC ENERGY DENSITIES (G,K) :  2.3783E-02  1.5513E+00
 VIRIAL DENSITY                 : -1.5751E+00
 ELF(PAA)                       :  9.9797E-01

 SPECTRAL DECOMP. OF THE HESSIAN OF RHO

 EIGENVALUES (L1 L2 L3)         : -2.4530E+00 -2.4141E+00 -1.2431E+00
 EIGENVECTORS                   : -3.4404E-01  7.0711E-01  6.1777E-01
                                  -3.4404E-01 -7.0711E-01  6.1777E-01
                                   8.7366E-01 -3.3862E-15  4.8654E-01


 CLUSTER OF ATOMS AROUND THE CP 
 NEW  OLD   CELL  AT. NU.         COORD.(AU)             DISTANCE (ANG)
     1       9       0     0     0    1        2.708  -2.550   2.502          0.094
     2       5       0     0     0    7        1.534  -3.724   1.563          0.915
     3      13       0     0     0    1        1.515  -3.743  -0.336          1.667
     4       1       0    -1     0    6        0.000  -5.258   2.886          1.960
     5       4       0     0     0    8        5.258   0.000   3.582          2.084
     6       3       0    -1     1    8        0.000  -5.258   5.269          2.462
     7      16       0     0     0    1        3.743   1.515   0.336          2.542
     8      15       1     0     0    1        6.774  -1.515   0.336          2.542
     9       2       0     0     1    6        5.258   0.000   5.966          2.737
    10       8       0     0     0    7        3.724   1.534  -1.563          3.117

 CP N.      5
 *********

 CP TYPE                        :  (3,-3)
 COORD(AU)  (X  Y  Z)           :  1.5168E+00 -3.7414E+00 -1.6092E-01
 COORD FRACT. CONV. CELL        :  1.4423E-01 -3.5577E-01 -1.8180E-02
 PROPERTIES (RHO,GRHO,LAP)      :  3.6761E-01  8.0496E-10 -6.2416E+00
 KINETIC ENERGY DENSITIES (G,K) :  2.3524E-02  1.5839E+00
 VIRIAL DENSITY                 : -1.6074E+00
 ELF(PAA)                       :  9.9812E-01

 SPECTRAL DECOMP. OF THE HESSIAN OF RHO

 EIGENVALUES (L1 L2 L3)         : -2.4984E+00 -2.4593E+00 -1.2839E+00
 EIGENVECTORS                   : -7.0708E-01 -7.0711E-01  6.6416E-03
                                  -7.0708E-01  7.0711E-01  6.6416E-03
                                   9.3926E-03 -1.1102E-16  9.9996E-01


 CLUSTER OF ATOMS AROUND THE CP 
 NEW  OLD   CELL  AT. NU.         COORD.(AU)             DISTANCE (ANG)
     1      13       0     0     0    1        1.515  -3.743  -0.336          0.093
     2       5       0     0     0    7        1.534  -3.724   1.563          0.912
     3       9       0     0     0    1        2.708  -2.550   2.502          1.668
     4       1       0    -1     0    6        0.000  -5.258   2.886          1.972
     5       3       0    -1     0    8        0.000  -5.258  -3.582          2.137
     6      14       0    -1     0    1       -1.515  -6.774  -0.336          2.271
     7       6       0    -1     0    7       -1.534  -6.792   1.563          2.459
     8      11       0     0     0    1       -2.550  -2.708  -2.502          2.543
     9      12       0    -1     0    1        2.550  -7.808  -2.502          2.543
    10      16       0     0     0    1        3.743   1.515   0.336          3.032


 ********************
 SEARCH OF (3,-1) CPS
 ********************


 *********** CP SEARCH AMONG ATOM PAIRS WITH NON-EQUIV. ATOM     1 C  ***********


 CP N.      6
 *********

 CP TYPE                        :  (3,-1)
 COORD(AU)  (X  Y  Z)           :  1.1260E+00  2.6096E+00 -5.9525E-02
 COORD FRACT. CONV. CELL        :  1.0707E-01  2.4815E-01 -6.7249E-03
 PROPERTIES (RHO,GRHO,LAP)      :  3.6447E-03  6.8442E-18  2.0720E-02
 KINETIC ENERGY DENSITIES (G,K) :  4.0799E-03 -1.1000E-03
 VIRIAL DENSITY                 : -2.9799E-03
 ELF(PAA)                       :  3.6766E-03

 SPECTRAL DECOMP. OF THE HESSIAN OF RHO

 EIGENVALUES (L1 L2 L3)         : -2.8944E-03 -1.1049E-03  2.4719E-02
 EIGENVECTORS                   : -4.0077E-01 -4.3798E-01  8.0471E-01
                                  -9.1587E-01  2.1421E-01 -3.3955E-01
                                  -2.3657E-02 -8.7309E-01 -4.8698E-01

 ELLIPTICITY                    :  1.6197E+00

 CLUSTER OF ATOMS AROUND THE CP 
 NEW  OLD   CELL  AT. NU.         COORD.(AU)             DISTANCE (ANG)
     1      12       0     0     0    1        2.550   2.708  -2.502          1.497
     2      16       0     0     0    1        3.743   1.515   0.336          1.515
     3      14       0     0     0    1       -1.515   3.743  -0.336          1.528
     4       8       0     0     0    7        3.724   1.534  -1.563          1.687
     5       6       0     0     0    7       -1.534   3.724   1.563          1.751
     6       1       0     0     0    6        0.000   5.258   2.886          2.179
     7      13       0     1     0    1        1.515   6.774  -0.336          2.218
     8       5       0     1     0    7        1.534   6.792   1.563          2.384
     9       3       0     0     0    8        0.000   5.258  -3.582          2.407
    10      10       0     0     0    1       -2.708   2.550   2.502          2.440

 ******************************
 SEARCH OF BOND PATH ATTRACTORS
 ******************************

 ATTRACTOR CP TYPE              :  (3,-3)
 COORD(AU)  (X  Y  Z)           :  3.7238E+00  1.5343E+00 -1.5632E+00
 COORD FRACT. CONV. CELL        :  3.5410E-01  1.4590E-01 -1.7660E-01
 PROPERTIES (RHO,GRHO,LAP)      :  1.9130E+02  4.4030E-11 -9.6288E+05
 TRAJECTORY LENGTH(ANG)         :  1.6895E+00
 INTEGRATION STEPS              :      62

 CLUSTER OF ATOMS AROUND THE TERMINUS OF THE PATH 
 NEW  OLD   CELL  AT. NU.         COORD.(AU)             DISTANCE (ANG)
     1       8       0     0     0    7        3.724   1.534  -1.563          0.000
     2      16       0     0     0    1        3.743   1.515   0.336          1.005
     3      12       0     0     0    1        2.550   2.708  -2.502          1.009
     4       2       0     0     0    6        5.258   0.000  -2.886          1.345


 ATTRACTOR CP TYPE              :  (3,-3)
 COORD(AU)  (X  Y  Z)           : -1.5343E+00  3.7238E+00  1.5632E+00
 COORD FRACT. CONV. CELL        : -1.4590E-01  3.5410E-01  1.7660E-01
 PROPERTIES (RHO,GRHO,LAP)      :  1.9130E+02  4.4030E-11 -9.6288E+05
 TRAJECTORY LENGTH(ANG)         :  1.7535E+00
 INTEGRATION STEPS              :      65

 CLUSTER OF ATOMS AROUND THE TERMINUS OF THE PATH 
 NEW  OLD   CELL  AT. NU.         COORD.(AU)             DISTANCE (ANG)
     1       6       0     0     0    7       -1.534   3.724   1.563          0.000
     2      14       0     0     0    1       -1.515   3.743  -0.336          1.005
     3      10       0     0     0    1       -2.708   2.550   2.502          1.009
     4       1       0     0     0    6        0.000   5.258   2.886          1.345


 BPL (ANG) ; RAB ; (BPL/RAB)    :  3.4431E+00  3.4383E+00  1.0014E+00

 CP N.      7
 *********

 CP TYPE                        :  (3,-1)
 COORD(AU)  (X  Y  Z)           :  5.3834E-01  5.7965E+00  2.4153E+00
 COORD FRACT. CONV. CELL        :  5.1191E-02 -4.4881E-01  2.7287E-01
 PROPERTIES (RHO,GRHO,LAP)      :  3.4227E-01  2.3395E-13 -9.5220E-01
 KINETIC ENERGY DENSITIES (G,K) :  2.4550E-01  4.8355E-01
 VIRIAL DENSITY                 : -7.2906E-01
 ELF(PAA)                       :  7.9323E-01

 SPECTRAL DECOMP. OF THE HESSIAN OF RHO

 EIGENVALUES (L1 L2 L3)         : -8.9258E-01 -7.8059E-01  7.2097E-01
 EIGENVECTORS                   :  3.6903E-01  7.0711E-01  6.0317E-01
                                   3.6903E-01 -7.0711E-01  6.0317E-01
                                   8.5302E-01 -6.1062E-16 -5.2189E-01

 ELLIPTICITY                    :  1.4348E-01

 CLUSTER OF ATOMS AROUND THE CP 
 NEW  OLD   CELL  AT. NU.         COORD.(AU)             DISTANCE (ANG)
     1       1       0     0     0    6        0.000   5.258   2.886          0.474
     2       5       0     1     0    7        1.534   6.792   1.563          0.871
     3       3       0     0     1    8        0.000   5.258   5.269          1.563
     4       6       0     0     0    7       -1.534   3.724   1.563          1.615
     5       9       0     1     0    1        2.708   7.966   2.502          1.624
     6      13       0     1     0    1        1.515   6.774  -0.336          1.629
     7      14       0     0     0    1       -1.515   3.743  -0.336          2.117
     8      10       0     0     0    1       -2.708   2.550   2.502          2.430
     9      11       0     1     1    1       -2.550   7.808   6.349          2.853
    10      12       0     0     1    1        2.550   2.708   6.349          2.853

 ******************************
 SEARCH OF BOND PATH ATTRACTORS
 ******************************

 ATTRACTOR CP TYPE              :  (3,-3)
 COORD(AU)  (X  Y  Z)           :  1.5343E+00  6.7925E+00  1.5632E+00
 COORD FRACT. CONV. CELL        :  1.4590E-01 -3.5410E-01  1.7660E-01
 PROPERTIES (RHO,GRHO,LAP)      :  1.9130E+02  3.1767E-10 -9.6288E+05
 TRAJECTORY LENGTH(ANG)         :  8.7116E-01
 INTEGRATION STEPS              :      53

 CLUSTER OF ATOMS AROUND THE TERMINUS OF THE PATH 
 NEW  OLD   CELL  AT. NU.         COORD.(AU)             DISTANCE (ANG)
     1       5       0     1     0    7        1.534   6.792   1.563          0.000
     2      13       0     1     0    1        1.515   6.774  -0.336          1.005
     3       9       0     1     0    1        2.708   7.966   2.502          1.009
     4       1       0     0     0    6        0.000   5.258   2.886          1.345


 ATTRACTOR CP TYPE              :  (3,-3)
 COORD(AU)  (X  Y  Z)           : -8.4983E-20  5.2582E+00  2.8856E+00
 COORD FRACT. CONV. CELL        : -8.0810E-21  5.0000E-01  3.2600E-01
 PROPERTIES (RHO,GRHO,LAP)      :  1.1795E+02  1.2762E-11 -4.3488E+05
 TRAJECTORY LENGTH(ANG)         :  4.7355E-01
 INTEGRATION STEPS              :      47

 CLUSTER OF ATOMS AROUND THE TERMINUS OF THE PATH 
 NEW  OLD   CELL  AT. NU.         COORD.(AU)             DISTANCE (ANG)
     1       1       0     0     0    6        0.000   5.258   2.886          0.000
     2       3       0     0     1    8        0.000   5.258   5.269          1.261
     3       5       0     1     0    7        1.534   6.792   1.563          1.345
     4       6       0     0     0    7       -1.534   3.724   1.563          1.345


 BPL (ANG) ; RAB ; (BPL/RAB)    :  1.3447E+00  1.3447E+00  1.0000E+00

 CP N.      8
 *********

 CP TYPE                        :  (3,-1)
 COORD(AU)  (X  Y  Z)           :  1.6680E+00  3.5901E+00  5.9977E+00
 COORD FRACT. CONV. CELL        :  1.5861E-01  3.4139E-01 -3.2241E-01
 PROPERTIES (RHO,GRHO,LAP)      :  2.3071E-02  7.3985E-15  8.1440E-02
 KINETIC ENERGY DENSITIES (G,K) :  2.1395E-02  1.0355E-03
 VIRIAL DENSITY                 : -2.2431E-02
 ELF(PAA)                       :  5.9231E-02

 SPECTRAL DECOMP. OF THE HESSIAN OF RHO

 EIGENVALUES (L1 L2 L3)         : -3.1195E-02 -3.0463E-02  1.4310E-01
 EIGENVECTORS                   : -2.3070E-01 -7.0711E-01  6.6841E-01
                                   2.3070E-01 -7.0711E-01 -6.6841E-01
                                   9.4528E-01  1.5077E-07  3.2626E-01

 ELLIPTICITY                    :  2.4029E-02

 CLUSTER OF ATOMS AROUND THE CP 
 NEW  OLD   CELL  AT. NU.         COORD.(AU)             DISTANCE (ANG)
     1      12       0     0     1    1        2.550   2.708   6.349          0.686
     2       3       0     0     1    8        0.000   5.258   5.269          1.306
     3       8       0     0     1    7        3.724   1.534   7.288          1.683
     4       1       0     0     0    6        0.000   5.258   2.886          2.066
     5      13       0     1     1    1        1.515   6.774   8.515          2.149
     6      14       0     0     1    1       -1.515   3.743   8.515          2.149
     7      16       0     0     1    1        3.743   1.515   9.188          2.294
     8       2       0     0     1    6        5.258   0.000   5.966          2.687
     9       6       0     0     1    7       -1.534   3.724  10.415          2.888
    10       5       0     1     1    7        1.534   6.792  10.415          2.888

 ******************************
 SEARCH OF BOND PATH ATTRACTORS
 ******************************

 ATTRACTOR CP TYPE              :  (3,-3)
 COORD(AU)  (X  Y  Z)           :  2.6597E+00  2.5984E+00  6.4351E+00
 COORD FRACT. CONV. CELL        :  2.5292E-01  2.4708E-01 -2.7299E-01
 PROPERTIES (RHO,GRHO,LAP)      :  3.6193E-01  1.6699E-12 -6.1101E+00
 TRAJECTORY LENGTH(ANG)         :  7.7806E-01
 INTEGRATION STEPS              :      28

 CLUSTER OF ATOMS AROUND THE TERMINUS OF THE PATH 
 NEW  OLD   CELL  AT. NU.         COORD.(AU)             DISTANCE (ANG)
     1      12       0     0     1    1        2.550   2.708   6.349          0.094
     2       8       0     0     1    7        3.724   1.534   7.288          0.915
     3      16       0     0     1    1        3.743   1.515   9.188          1.667
     4       2       0     0     1    6        5.258   0.000   5.966          1.960


 ATTRACTOR CP TYPE              :  (3,-3)
 COORD(AU)  (X  Y  Z)           :  4.9010E-18  5.2582E+00  5.2693E+00
 COORD FRACT. CONV. CELL        :  4.6604E-19  5.0000E-01 -4.0470E-01
 PROPERTIES (RHO,GRHO,LAP)      :  2.9153E+02  1.0163E-10 -1.9267E+06
 TRAJECTORY LENGTH(ANG)         :  1.3068E+00
 INTEGRATION STEPS              :      60

 CLUSTER OF ATOMS AROUND THE TERMINUS OF THE PATH 
 NEW  OLD   CELL  AT. NU.         COORD.(AU)             DISTANCE (ANG)
     1       3       0     0     1    8        0.000   5.258   5.269          0.000
     2       1       0     0     0    6        0.000   5.258   2.886          1.261
     3      11       0     1     1    1       -2.550   7.808   6.349          1.992
     4      12       0     0     1    1        2.550   2.708   6.349          1.992


 BPL (ANG) ; RAB ; (BPL/RAB)    :  2.0849E+00  1.9922E+00  1.0465E+00

 CP N.      9
 *********

 CP TYPE                        :  (3,-1)
 COORD(AU)  (X  Y  Z)           :  9.2681E-01  6.1850E+00  7.3730E+00
 COORD FRACT. CONV. CELL        :  8.8130E-02 -4.1187E-01 -1.6703E-01
 PROPERTIES (RHO,GRHO,LAP)      :  1.9191E-02  1.0394E-17  8.0204E-02
 KINETIC ENERGY DENSITIES (G,K) :  1.9688E-02 -3.6337E-04
 VIRIAL DENSITY                 : -1.9324E-02
 ELF(PAA)                       :  3.8689E-02

 SPECTRAL DECOMP. OF THE HESSIAN OF RHO

 EIGENVALUES (L1 L2 L3)         : -2.5369E-02 -2.4534E-02  1.3011E-01
 EIGENVECTORS                   : -6.2329E-01  7.0711E-01  3.3393E-01
                                  -6.2329E-01 -7.0711E-01  3.3393E-01
                                   4.7224E-01 -2.2204E-15  8.8147E-01

 ELLIPTICITY                    :  3.4015E-02

 CLUSTER OF ATOMS AROUND THE CP 
 NEW  OLD   CELL  AT. NU.         COORD.(AU)             DISTANCE (ANG)
     1      13       0     1     1    1        1.515   6.774   8.515          0.748
     2       3       0     0     1    8        0.000   5.258   5.269          1.312
     3       5       0     1     1    7        1.534   6.792  10.415          1.673
     4      14       0     0     1    1       -1.515   3.743   8.515          1.925
     5      12       0     0     1    1        2.550   2.708   6.349          2.102
     6      11       0     1     1    1       -2.550   7.808   6.349          2.102
     7       1       0     0     1    6        0.000   5.258  11.737          2.411
     8       6       0     0     1    7       -1.534   3.724  10.415          2.446
     9       1       0     0     0    6        0.000   5.258   2.886          2.474
    10       9       0     1     1    1        2.708   7.966  11.354          2.493

 ******************************
 SEARCH OF BOND PATH ATTRACTORS
 ******************************

 ATTRACTOR CP TYPE              :  (3,-3)
 COORD(AU)  (X  Y  Z)           :  1.5168E+00  6.7750E+00  8.6906E+00
 COORD FRACT. CONV. CELL        :  1.4423E-01 -3.5577E-01 -1.8180E-02
 PROPERTIES (RHO,GRHO,LAP)      :  3.6761E-01  1.6133E-12 -6.2416E+00
 TRAJECTORY LENGTH(ANG)         :  8.2941E-01
 INTEGRATION STEPS              :      30

 CLUSTER OF ATOMS AROUND THE TERMINUS OF THE PATH 
 NEW  OLD   CELL  AT. NU.         COORD.(AU)             DISTANCE (ANG)
     1      13       0     1     1    1        1.515   6.774   8.515          0.093
     2       5       0     1     1    7        1.534   6.792  10.415          0.912
     3       9       0     1     1    1        2.708   7.966  11.354          1.668
     4       1       0     0     1    6        0.000   5.258  11.737          1.972


 ATTRACTOR CP TYPE              :  (3,-3)
 COORD(AU)  (X  Y  Z)           :  2.2970E-18  5.2582E+00  5.2693E+00
 COORD FRACT. CONV. CELL        :  2.1842E-19  5.0000E-01 -4.0470E-01
 PROPERTIES (RHO,GRHO,LAP)      :  2.9153E+02  1.0159E-10 -1.9267E+06
 TRAJECTORY LENGTH(ANG)         :  1.3149E+00
 INTEGRATION STEPS              :      53

 CLUSTER OF ATOMS AROUND THE TERMINUS OF THE PATH 
 NEW  OLD   CELL  AT. NU.         COORD.(AU)             DISTANCE (ANG)
     1       3       0     0     1    8        0.000   5.258   5.269          0.000
     2       1       0     0     0    6        0.000   5.258   2.886          1.261
     3      11       0     1     1    1       -2.550   7.808   6.349          1.992
     4      12       0     0     1    1        2.550   2.708   6.349          1.992


 BPL (ANG) ; RAB ; (BPL/RAB)    :  2.1443E+00  2.0582E+00  1.0418E+00


 *********** CP SEARCH AMONG ATOM PAIRS WITH NON-EQUIV. ATOM     2 O  ***********


 CP N.     10
 *********

 CP TYPE                        :  (3,-1)
 COORD(AU)  (X  Y  Z)           :  1.6074E-14  5.2582E+00 -5.1494E+00
 COORD FRACT. CONV. CELL        :  1.5285E-15 -5.0000E-01  4.1824E-01
 PROPERTIES (RHO,GRHO,LAP)      :  3.7429E-01  7.1647E-13 -5.5077E-01
 KINETIC ENERGY DENSITIES (G,K) :  4.3623E-01  5.7392E-01
 VIRIAL DENSITY                 : -1.0102E+00
 ELF(PAA)                       :  6.2079E-01

 SPECTRAL DECOMP. OF THE HESSIAN OF RHO

 EIGENVALUES (L1 L2 L3)         : -9.9846E-01 -9.6189E-01  1.4096E+00
 EIGENVECTORS                   : -7.0711E-01  7.0711E-01  0.0000E+00
                                  -7.0711E-01 -7.0711E-01  1.1443E-12
                                   8.0915E-13  8.0915E-13  1.0000E+00

 ELLIPTICITY                    :  3.8024E-02

 CLUSTER OF ATOMS AROUND THE CP 
 NEW  OLD   CELL  AT. NU.         COORD.(AU)             DISTANCE (ANG)
     1       1       0     0    -1    6        0.000   5.258  -5.966          0.432
     2       3       0     0     0    8        0.000   5.258  -3.582          0.829
     3       5       0     1    -1    7        1.534   6.792  -7.288          1.612
     4       6       0     0    -1    7       -1.534   3.724  -7.288          1.612
     5       9       0     1    -1    1        2.708   7.966  -6.349          2.124
     6      10       0     0    -1    1       -2.708   2.550  -6.349          2.124
     7      11       0     1     0    1       -2.550   7.808  -2.502          2.367
     8      12       0     0     0    1        2.550   2.708  -2.502          2.367
     9      13       0     1    -1    1        1.515   6.774  -9.188          2.419
    10      14       0     0    -1    1       -1.515   3.743  -9.188          2.419

 ******************************
 SEARCH OF BOND PATH ATTRACTORS
 ******************************

 ATTRACTOR CP TYPE              :  (3,-3)
 COORD(AU)  (X  Y  Z)           :  1.9867E-24  5.2582E+00 -3.5822E+00
 COORD FRACT. CONV. CELL        :  1.8891E-25  5.0000E-01 -4.0470E-01
 PROPERTIES (RHO,GRHO,LAP)      :  2.9153E+02  1.0154E-10 -1.9267E+06
 TRAJECTORY LENGTH(ANG)         :  8.2934E-01
 INTEGRATION STEPS              :      54

 CLUSTER OF ATOMS AROUND THE TERMINUS OF THE PATH 
 NEW  OLD   CELL  AT. NU.         COORD.(AU)             DISTANCE (ANG)
     1       3       0     0     0    8        0.000   5.258  -3.582          0.000
     2       1       0     0    -1    6        0.000   5.258  -5.966          1.261
     3      11       0     1     0    1       -2.550   7.808  -2.502          1.992
     4      12       0     0     0    1        2.550   2.708  -2.502          1.992


 ATTRACTOR CP TYPE              :  (3,-3)
 COORD(AU)  (X  Y  Z)           : -4.4596E-22  5.2582E+00 -5.9659E+00
 COORD FRACT. CONV. CELL        : -4.2406E-23  5.0000E-01  3.2600E-01
 PROPERTIES (RHO,GRHO,LAP)      :  1.1795E+02  1.2867E-11 -4.3488E+05
 TRAJECTORY LENGTH(ANG)         :  4.3205E-01
 INTEGRATION STEPS              :      49

 CLUSTER OF ATOMS AROUND THE TERMINUS OF THE PATH 
 NEW  OLD   CELL  AT. NU.         COORD.(AU)             DISTANCE (ANG)
     1       1       0     0    -1    6        0.000   5.258  -5.966          0.000
     2       3       0     0     0    8        0.000   5.258  -3.582          1.261
     3       5       0     1    -1    7        1.534   6.792  -7.288          1.345
     4       6       0     0    -1    7       -1.534   3.724  -7.288          1.345


 BPL (ANG) ; RAB ; (BPL/RAB)    :  1.2614E+00  1.2614E+00  1.0000E+00


 *********** CP SEARCH AMONG ATOM PAIRS WITH NON-EQUIV. ATOM     3 N  ***********


 CP N.     11
 *********

 CP TYPE                        :  (3,-1)
 COORD(AU)  (X  Y  Z)           :  1.5188E+00 -3.7394E+00  1.2932E-01
 COORD FRACT. CONV. CELL        :  1.4442E-01 -3.5558E-01  1.4610E-02
 PROPERTIES (RHO,GRHO,LAP)      :  3.5182E-01  2.3421E-16 -2.0045E+00
 KINETIC ENERGY DENSITIES (G,K) :  4.9913E-02  5.5104E-01
 VIRIAL DENSITY                 : -6.0095E-01
 ELF(PAA)                       :  9.9027E-01

 SPECTRAL DECOMP. OF THE HESSIAN OF RHO

 EIGENVALUES (L1 L2 L3)         : -1.4755E+00 -1.4028E+00  8.7379E-01
 EIGENVECTORS                   : -7.0707E-01 -7.0711E-01  6.8125E-03
                                  -7.0707E-01  7.0711E-01  6.8125E-03
                                   9.6343E-03 -5.5511E-17  9.9995E-01

 ELLIPTICITY                    :  5.1847E-02

 CLUSTER OF ATOMS AROUND THE CP 
 NEW  OLD   CELL  AT. NU.         COORD.(AU)             DISTANCE (ANG)
     1      13       0     0     0    1        1.515  -3.743  -0.336          0.246
     2       5       0     0     0    7        1.534  -3.724   1.563          0.759
     3       9       0     0     0    1        2.708  -2.550   2.502          1.539
     4       1       0    -1     0    6        0.000  -5.258   2.886          1.849
     5       3       0    -1     0    8        0.000  -5.258  -3.582          2.269
     6      14       0    -1     0    1       -1.515  -6.774  -0.336          2.284
     7       6       0    -1     0    7       -1.534  -6.792   1.563          2.408
     8      11       0     0     0    1       -2.550  -2.708  -2.502          2.622
     9      12       0    -1     0    1        2.550  -7.808  -2.502          2.622
    10       3       0    -1     1    8        0.000  -5.258   5.269          2.948

 ******************************
 SEARCH OF BOND PATH ATTRACTORS
 ******************************

 ATTRACTOR CP TYPE              :  (3,-3)
 COORD(AU)  (X  Y  Z)           :  1.5343E+00 -3.7238E+00  1.5632E+00
 COORD FRACT. CONV. CELL        :  1.4590E-01 -3.5410E-01  1.7660E-01
 PROPERTIES (RHO,GRHO,LAP)      :  1.9130E+02  4.4031E-11 -9.6288E+05
 TRAJECTORY LENGTH(ANG)         :  7.5886E-01
 INTEGRATION STEPS              :      53

 CLUSTER OF ATOMS AROUND THE TERMINUS OF THE PATH 
 NEW  OLD   CELL  AT. NU.         COORD.(AU)             DISTANCE (ANG)
     1       5       0     0     0    7        1.534  -3.724   1.563          0.000
     2      13       0     0     0    1        1.515  -3.743  -0.336          1.005
     3       9       0     0     0    1        2.708  -2.550   2.502          1.009
     4       1       0    -1     0    6        0.000  -5.258   2.886          1.345


 ATTRACTOR CP TYPE              :  (3,-3)
 COORD(AU)  (X  Y  Z)           :  1.5168E+00 -3.7414E+00 -1.6092E-01
 COORD FRACT. CONV. CELL        :  1.4423E-01 -3.5577E-01 -1.8180E-02
 PROPERTIES (RHO,GRHO,LAP)      :  3.6761E-01  8.1311E-14 -6.2416E+00
 TRAJECTORY LENGTH(ANG)         :  1.5359E-01
 INTEGRATION STEPS              :      18

 CLUSTER OF ATOMS AROUND THE TERMINUS OF THE PATH 
 NEW  OLD   CELL  AT. NU.         COORD.(AU)             DISTANCE (ANG)
     1      13       0     0     0    1        1.515  -3.743  -0.336          0.093
     2       5       0     0     0    7        1.534  -3.724   1.563          0.912
     3       9       0     0     0    1        2.708  -2.550   2.502          1.668
     4       1       0    -1     0    6        0.000  -5.258   2.886          1.972


 BPL (ANG) ; RAB ; (BPL/RAB)    :  9.1246E-01  1.0053E+00  9.0766E-01

 CP N.     12
 *********

 CP TYPE                        :  (3,-1)
 COORD(AU)  (X  Y  Z)           :  2.4232E+00 -2.8349E+00  2.2781E+00
 COORD FRACT. CONV. CELL        :  2.3043E-01 -2.6957E-01  2.5736E-01
 PROPERTIES (RHO,GRHO,LAP)      :  3.4724E-01  1.9176E-16 -2.0049E+00
 KINETIC ENERGY DENSITIES (G,K) :  4.8231E-02  5.4945E-01
 VIRIAL DENSITY                 : -5.9768E-01
 ELF(PAA)                       :  9.9050E-01

 SPECTRAL DECOMP. OF THE HESSIAN OF RHO

 EIGENVALUES (L1 L2 L3)         : -1.4682E+00 -1.3970E+00  8.6029E-01
 EIGENVECTORS                   : -3.4516E-01  7.0711E-01  6.1714E-01
                                  -3.4516E-01 -7.0711E-01  6.1714E-01
                                   8.7277E-01 -3.4972E-15  4.8812E-01

 ELLIPTICITY                    :  5.0942E-02

 CLUSTER OF ATOMS AROUND THE CP 
 NEW  OLD   CELL  AT. NU.         COORD.(AU)             DISTANCE (ANG)
     1       9       0     0     0    1        2.708  -2.550   2.502          0.244
     2       5       0     0     0    7        1.534  -3.724   1.563          0.765
     3      13       0     0     0    1        1.515  -3.743  -0.336          1.541
     4       1       0    -1     0    6        0.000  -5.258   2.886          1.842
     5       4       0     0     0    8        5.258   0.000   3.582          2.231
     6       3       0    -1     1    8        0.000  -5.258   5.269          2.407
     7      16       0     0     0    1        3.743   1.515   0.336          2.616
     8      15       1     0     0    1        6.774  -1.515   0.336          2.616
     9       2       0     0     1    6        5.258   0.000   5.966          2.883
    10       6       0    -1     0    7       -1.534  -6.792   1.563          2.986

 ******************************
 SEARCH OF BOND PATH ATTRACTORS
 ******************************

 ATTRACTOR CP TYPE              :  (3,-3)
 COORD(AU)  (X  Y  Z)           :  2.5984E+00 -2.6597E+00  2.4164E+00
 COORD FRACT. CONV. CELL        :  2.4708E-01 -2.5292E-01  2.7299E-01
 PROPERTIES (RHO,GRHO,LAP)      :  3.6193E-01  3.9195E-13 -6.1101E+00
 TRAJECTORY LENGTH(ANG)         :  1.5016E-01
 INTEGRATION STEPS              :      17

 CLUSTER OF ATOMS AROUND THE TERMINUS OF THE PATH 
 NEW  OLD   CELL  AT. NU.         COORD.(AU)             DISTANCE (ANG)
     1       9       0     0     0    1        2.708  -2.550   2.502          0.094
     2       5       0     0     0    7        1.534  -3.724   1.563          0.915
     3      13       0     0     0    1        1.515  -3.743  -0.336          1.667
     4       1       0    -1     0    6        0.000  -5.258   2.886          1.960


 ATTRACTOR CP TYPE              :  (3,-3)
 COORD(AU)  (X  Y  Z)           :  1.5343E+00 -3.7238E+00  1.5632E+00
 COORD FRACT. CONV. CELL        :  1.4590E-01 -3.5410E-01  1.7660E-01
 PROPERTIES (RHO,GRHO,LAP)      :  1.9130E+02  4.4031E-11 -9.6288E+05
 TRAJECTORY LENGTH(ANG)         :  7.6528E-01
 INTEGRATION STEPS              :      47

 CLUSTER OF ATOMS AROUND THE TERMINUS OF THE PATH 
 NEW  OLD   CELL  AT. NU.         COORD.(AU)             DISTANCE (ANG)
     1       5       0     0     0    7        1.534  -3.724   1.563          0.000
     2      13       0     0     0    1        1.515  -3.743  -0.336          1.005
     3       9       0     0     0    1        2.708  -2.550   2.502          1.009
     4       1       0    -1     0    6        0.000  -5.258   2.886          1.345


 BPL (ANG) ; RAB ; (BPL/RAB)    :  9.1544E-01  1.0092E+00  9.0714E-01


 *********** CP SEARCH AMONG ATOM PAIRS WITH NON-EQUIV. ATOM     4 H  ***********



 *********** CP SEARCH AMONG ATOM PAIRS WITH NON-EQUIV. ATOM     5 H  ***********



 ********************
 SEARCH OF (3,+1) CPS
 ********************

 CP N.     13
 *********

 CP TYPE                        :  (3,+1)
 COORD(AU)  (X  Y  Z)           :  2.5835E+00  7.8416E+00  5.7675E+00
 COORD FRACT. CONV. CELL        :  2.4566E-01 -2.5434E-01 -3.4841E-01
 PROPERTIES (RHO,GRHO,LAP)      :  8.0292E-04  7.6641E-14  5.1417E-03
 KINETIC ENERGY DENSITIES (G,K) :  7.9403E-04 -4.9138E-04
 VIRIAL DENSITY                 : -3.0265E-04
 ELF(PAA)                       :  6.2867E-04

 SPECTRAL DECOMP. OF THE HESSIAN OF RHO

 EIGENVALUES (L1 L2 L3)         : -5.5276E-04  1.0598E-03  4.6347E-03
 EIGENVECTORS                   :  7.0711E-01 -2.9141E-02  7.0651E-01
                                  -7.0711E-01 -2.9141E-02  7.0651E-01
                                   1.1405E-12  9.9915E-01  4.1212E-02


 CLUSTER OF ATOMS AROUND THE CP 
 NEW  OLD   CELL  AT. NU.         COORD.(AU)             DISTANCE (ANG)
     1      13       0     1     1    1        1.515   6.774   8.515          1.659
     2       9       0     1     0    1        2.708   7.966   2.502          1.730
     3       3       0     0     1    8        0.000   5.258   5.269          1.951
     4       2       0     1     1    6        5.258  10.516   5.966          2.004
     5       4       0     1     0    8        5.258  10.516   3.582          2.312
     6       5       0     1     0    7        1.534   6.792   1.563          2.359
     7       8       0     1     1    7        3.724  12.051   7.288          2.444
     8       7       1     1     1    7        6.792   8.982   7.288          2.444
     9       1       0     0     0    6        0.000   5.258   2.886          2.462
    10       5       0     1     1    7        1.534   6.792  10.415          2.581

 CP N.     14
 *********

 CP TYPE                        :  (3,+1)
 COORD(AU)  (X  Y  Z)           :  9.0909E-18  5.2582E+00 -6.8464E-01
 COORD FRACT. CONV. CELL        :  8.6446E-19  5.0000E-01 -7.7347E-02
 PROPERTIES (RHO,GRHO,LAP)      :  7.6232E-03  3.3681E-16  5.2547E-02
 KINETIC ENERGY DENSITIES (G,K) :  1.0176E-02 -2.9606E-03
 VIRIAL DENSITY                 : -7.2154E-03
 ELF(PAA)                       :  6.8934E-03

 SPECTRAL DECOMP. OF THE HESSIAN OF RHO

 EIGENVALUES (L1 L2 L3)         : -7.2426E-03  2.9692E-02  3.0097E-02
 EIGENVECTORS                   : -7.0711E-01  7.0711E-01  0.0000E+00
                                   7.0711E-01  7.0711E-01 -2.3048E-16
                                   1.6297E-16  1.6297E-16  1.0000E+00


 CLUSTER OF ATOMS AROUND THE CP 
 NEW  OLD   CELL  AT. NU.         COORD.(AU)             DISTANCE (ANG)
     1      14       0     0     0    1       -1.515   3.743  -0.336          1.149
     2      13       0     1     0    1        1.515   6.774  -0.336          1.149
     3       3       0     0     0    8        0.000   5.258  -3.582          1.533
     4       5       0     1     0    7        1.534   6.792   1.563          1.653
     5       6       0     0     0    7       -1.534   3.724   1.563          1.653
     6       1       0     0     0    6        0.000   5.258   2.886          1.889
     7      11       0     1     0    1       -2.550   7.808  -2.502          2.137
     8      12       0     0     0    1        2.550   2.708  -2.502          2.137
     9      10       0     0     0    1       -2.708   2.550   2.502          2.636
    10       9       0     1     0    1        2.708   7.966   2.502          2.636

 CP N.     15
 *********

 CP TYPE                        :  (3,+1)
 COORD(AU)  (X  Y  Z)           : -1.8671E+00  7.1253E+00  4.7517E-01
 COORD FRACT. CONV. CELL        : -1.7754E-01 -3.2246E-01  5.3682E-02
 PROPERTIES (RHO,GRHO,LAP)      :  2.9477E-03  2.0539E-13  1.8687E-02
 KINETIC ENERGY DENSITIES (G,K) :  3.4998E-03 -1.1719E-03
 VIRIAL DENSITY                 : -2.3278E-03
 ELF(PAA)                       :  2.4657E-03

 SPECTRAL DECOMP. OF THE HESSIAN OF RHO

 EIGENVALUES (L1 L2 L3)         : -9.3784E-04  2.9171E-03  1.6707E-02
 EIGENVECTORS                   : -3.6706E-01 -7.0711E-01  6.0437E-01
                                   3.6706E-01 -7.0711E-01 -6.0437E-01
                                   8.5472E-01 -2.4319E-12  5.1910E-01


 CLUSTER OF ATOMS AROUND THE CP 
 NEW  OLD   CELL  AT. NU.         COORD.(AU)             DISTANCE (ANG)
     1      15       0     1     0    1       -3.743   9.001   0.336          1.406
     2      11       0     1     0    1       -2.550   7.808  -2.502          1.656
     3       7       0     1     0    7       -3.724   8.982  -1.563          1.759
     4      14       0     0     0    1       -1.515   3.743  -0.336          1.850
     5      13       0     1     0    1        1.515   6.774  -0.336          1.850
     6       1       0     0     0    6        0.000   5.258   2.886          1.892
     7       6       0     0     0    7       -1.534   3.724   1.563          1.898
     8       5       0     1     0    7        1.534   6.792   1.563          1.898
     9       3       0     0     0    8        0.000   5.258  -3.582          2.562
    10      10       0     0     0    1       -2.708   2.550   2.502          2.685

 CP N.     16
 *********

 CP TYPE                        :  (3,+3)
 COORD(AU)  (X  Y  Z)           :  1.6088E-16  8.5230E-15  4.4257E+00
 COORD FRACT. CONV. CELL        :  1.5298E-17  8.1045E-16  5.0000E-01
 PROPERTIES (RHO,GRHO,LAP)      :  4.1313E-05  8.2444E-13  4.2340E-04
 KINETIC ENERGY DENSITIES (G,K) :  6.3084E-05 -4.2765E-05
 VIRIAL DENSITY                 : -2.0319E-05
 ELF(PAA)                       :  5.0494E-06

 SPECTRAL DECOMP. OF THE HESSIAN OF RHO

 EIGENVALUES (L1 L2 L3)         :  9.6221E-05  1.6359E-04  1.6359E-04
 EIGENVECTORS                   :  0.0000E+00  1.0000E+00  0.0000E+00
                                   9.8691E-07  0.0000E+00 -1.0000E+00
                                   1.0000E+00  0.0000E+00  9.8691E-07


 CLUSTER OF ATOMS AROUND THE CP 
 NEW  OLD   CELL  AT. NU.         COORD.(AU)             DISTANCE (ANG)
     1      10       0     0     0    1       -2.708   2.550   2.502          2.216
     2       9       0     0     0    1        2.708  -2.550   2.502          2.216
     3      12       0     0     1    1        2.550   2.708   6.349          2.216
     4      11       0     0     1    1       -2.550  -2.708   6.349          2.216
     5       6       0     0     0    7       -1.534   3.724   1.563          2.615
     6       5       0     0     0    7        1.534  -3.724   1.563          2.615
     7       8       0     0     1    7        3.724   1.534   7.288          2.615
     8       7       0     0     1    7       -3.724  -1.534   7.288          2.615
     9       4      -1     0     0    8       -5.258   0.000   3.582          2.818
    10       4       0     0     0    8        5.258   0.000   3.582          2.818

 CP N.     17
 *********

 CP TYPE                        :  (3,+1)
 COORD(AU)  (X  Y  Z)           : -7.7968E-01  7.4880E+00 -8.7363E-01
 COORD FRACT. CONV. CELL        : -7.4140E-02 -2.8796E-01 -9.8699E-02
 PROPERTIES (RHO,GRHO,LAP)      :  3.3814E-03  3.1376E-16  2.0926E-02
 KINETIC ENERGY DENSITIES (G,K) :  3.7544E-03 -1.4771E-03
 VIRIAL DENSITY                 : -2.2774E-03
 ELF(PAA)                       :  3.3823E-03

 SPECTRAL DECOMP. OF THE HESSIAN OF RHO

 EIGENVALUES (L1 L2 L3)         : -2.7971E-03  2.5427E-03  2.1180E-02
 EIGENVECTORS                   :  4.9588E-01  3.0297E-01  8.1383E-01
                                   7.9136E-01 -5.4355E-01 -2.7983E-01
                                  -3.5757E-01 -7.8279E-01  5.0930E-01


 CLUSTER OF ATOMS AROUND THE CP 
 NEW  OLD   CELL  AT. NU.         COORD.(AU)             DISTANCE (ANG)
     1      11       0     1     0    1       -2.550   7.808  -2.502          1.284
     2      13       0     1     0    1        1.515   6.774  -0.336          1.303
     3       7       0     1     0    7       -3.724   8.982  -1.563          1.785
     4       5       0     1     0    7        1.534   6.792   1.563          1.816
     5      15       0     1     0    1       -3.743   9.001   0.336          1.873
     6       3       0     0     0    8        0.000   5.258  -3.582          1.902
     7      14       0     0     0    1       -1.515   3.743  -0.336          2.040
     8       1       0     0     0    6        0.000   5.258   2.886          2.349
     9       6       0     0     0    7       -1.534   3.724   1.563          2.406
    10       9       0     1     0    1        2.708   7.966   2.502          2.581


 ********************
 SEARCH OF (3,+3) CPS
 ********************

 CP N.     18
 *********

 CP TYPE                        :  (3,+3)
 COORD(AU)  (X  Y  Z)           : -1.3847E+00  6.6429E+00 -5.0524E-01
 COORD FRACT. CONV. CELL        : -1.3168E-01 -3.6832E-01 -5.7080E-02
 PROPERTIES (RHO,GRHO,LAP)      :  2.6313E-03  1.1297E-14  1.8507E-02
 KINETIC ENERGY DENSITIES (G,K) :  3.3449E-03 -1.2818E-03
 VIRIAL DENSITY                 : -2.0631E-03
 ELF(PAA)                       :  1.8499E-03

 SPECTRAL DECOMP. OF THE HESSIAN OF RHO

 EIGENVALUES (L1 L2 L3)         :  2.1748E-03  3.7498E-03  1.2582E-02
 EIGENVECTORS                   : -4.4259E-01 -7.0711E-01  5.5147E-01
                                   4.4259E-01 -7.0711E-01 -5.5147E-01
                                   7.7989E-01 -1.0751E-11  6.2592E-01


 CLUSTER OF ATOMS AROUND THE CP 
 NEW  OLD   CELL  AT. NU.         COORD.(AU)             DISTANCE (ANG)
     1      11       0     1     0    1       -2.550   7.808  -2.502          1.370
     2      14       0     0     0    1       -1.515   3.743  -0.336          1.539
     3      13       0     1     0    1        1.515   6.774  -0.336          1.539
     4      15       0     1     0    1       -3.743   9.001   0.336          1.820
     5       7       0     1     0    7       -3.724   8.982  -1.563          1.838
     6       6       0     0     0    7       -1.534   3.724   1.563          1.895
     7       5       0     1     0    7        1.534   6.792   1.563          1.895
     8       3       0     0     0    8        0.000   5.258  -3.582          1.930
     9       1       0     0     0    6        0.000   5.258   2.886          2.072
    10      10       0     0     0    1       -2.708   2.550   2.502          2.777


 NUMBER OF ATOM PAIRS INVESTIGATED:    31
 NUMBER OF UNIQUE CRI. POINT FOUND:    18


        ********** C R I T I C A L  P O I N T S  F O U N D **********


 CP N.  X(ANG)  Y(ANG)  Z(ANG)  TYPE      RHO    LAPL    L1(V1)  L2(V2)  L3(V3) ELLIP

 ************************************************************************************
    1) -0.000   2.783   1.527  (3,-3)  117.954-999.999-999.999-999.999-999.999
                                                         0.707   0.000   0.707
                                                        -0.707  -0.000   0.707
                                                        -0.000   1.000   0.000


    2)  0.000   2.783  -1.896  (3,-3)  291.530-999.999-999.999-999.999-999.999
                                                         0.000   0.707   0.707
                                                         0.000  -0.707   0.707
                                                         1.000   0.000  -0.000


    3)  0.812  -1.971   0.827  (3,-3)  191.304-999.999-999.999-999.999-999.999
                                                         0.597  -0.379   0.707
                                                         0.597  -0.379  -0.707
                                                        -0.536  -0.844  -0.000


    4)  1.375  -1.407   1.279  (3,-3)    0.362  -6.110  -2.453  -2.414  -1.243
                                                        -0.344   0.707   0.618
                                                        -0.344  -0.707   0.618
                                                         0.874  -0.000   0.487


    5)  0.803  -1.980  -0.085  (3,-3)    0.368  -6.242  -2.498  -2.459  -1.284
                                                        -0.707  -0.707   0.007
                                                        -0.707   0.707   0.007
                                                         0.009  -0.000   1.000


    6)  0.596   1.381  -0.031  (3,-1)    0.004   0.021  -0.003  -0.001   0.025  1.620

       ( N     8       0      0      0   3.193  ANG)    -0.401  -0.438   0.805
       ( N     6       0      0      0   3.314  ANG)    -0.916   0.214  -0.340
                                                        -0.024  -0.873  -0.487


    7)  0.285   3.067   1.278  (3,-1)    0.342  -0.952  -0.893  -0.781   0.721  0.143

       ( C     1       0      0      0   0.895  ANG)     0.369   0.707   0.603
       ( N     5       0      1      0   1.646  ANG)     0.369  -0.707   0.603
                                                         0.853  -0.000  -0.522


    8)  0.883   1.900   3.174  (3,-1)    0.023   0.081  -0.031  -0.030   0.143  0.024

       ( H    12       0      0      1   1.470  ANG)    -0.231  -0.707   0.668
       ( O     3       0      0      1   2.470  ANG)     0.231  -0.707  -0.668
                                                         0.945   0.000   0.326


    9)  0.490   3.273   3.902  (3,-1)    0.019   0.080  -0.025  -0.025   0.130  0.034

       ( H    13       0      1      1   1.567  ANG)    -0.623   0.707   0.334
       ( O     3       0      0      1   2.485  ANG)    -0.623  -0.707   0.334
                                                         0.472  -0.000   0.881


   10)  0.000   2.783  -2.725  (3,-1)    0.374  -0.551  -0.998  -0.962   1.410  0.038

       ( C     1       0      0     -1   0.816  ANG)    -0.707   0.707   0.000
       ( O     3       0      0      0   1.567  ANG)    -0.707  -0.707   0.000
                                                         0.000   0.000   1.000


   11)  0.804  -1.979   0.068  (3,-1)    0.352  -2.005  -1.476  -1.403   0.874  0.052

       ( H    13       0      0      0   0.290  ANG)    -0.707  -0.707   0.007
       ( N     5       0      0      0   1.434  ANG)    -0.707   0.707   0.007
                                                         0.010  -0.000   1.000


   12)  1.282  -1.500   1.205  (3,-1)    0.347  -2.005  -1.468  -1.397   0.860  0.051

       ( H     9       0      0      0   0.284  ANG)    -0.345   0.707   0.617
       ( N     5       0      0      0   1.446  ANG)    -0.345  -0.707   0.617
                                                         0.873  -0.000   0.488


   13)  1.367   4.150   3.052  (3,+1)    0.001   0.005  -0.001   0.001   0.005
                                                         0.707  -0.029   0.707
                                                        -0.707  -0.029   0.707
                                                         0.000   0.999   0.041


   14)  0.000   2.783  -0.362  (3,+1)    0.008   0.053  -0.007   0.030   0.030
                                                        -0.707   0.707   0.000
                                                         0.707   0.707  -0.000
                                                         0.000   0.000   1.000


   15) -0.988   3.771   0.251  (3,+1)    0.003   0.019  -0.001   0.003   0.017
                                                        -0.367  -0.707   0.604
                                                         0.367  -0.707  -0.604
                                                         0.855  -0.000   0.519


   16)  0.000   0.000   2.342  (3,+3)    0.000   0.000   0.000   0.000   0.000
                                                         0.000   1.000   0.000
                                                         0.000   0.000  -1.000
                                                         1.000   0.000   0.000


   17) -0.413   3.962  -0.462  (3,+1)    0.003   0.021  -0.003   0.003   0.021
                                                         0.496   0.303   0.814
                                                         0.791  -0.544  -0.280
                                                        -0.358  -0.783   0.509


   18) -0.733   3.515  -0.267  (3,+3)    0.003   0.019   0.002   0.004   0.013
                                                        -0.443  -0.707   0.551
                                                         0.443  -0.707  -0.551
                                                         0.780  -0.000   0.626


 ************************************************************************************
 TTTTTTTTTTTTTTTTTTTTTTTTTTTTTT TRHO        TELAPSE       28.87 TCPU       28.30
 TTTTTTTTTTTTTTTTTTTTTTTTTTTTTT END         TELAPSE       28.87 TCPU       28.30
 EEEEEEEEEE TERMINATION  DATE 16 04 2018 TIME 17:27:10.2
Mon 16 Apr 17:27:10 BST 2018
Contents of temporary directory:
total 2324
-rw-r--r-- 1 giuseppe users   2911 Apr 16 17:27 fort.100
-rw-r--r-- 1 giuseppe users   2835 Apr 16 17:27 fort.101
-rw-r--r-- 1 giuseppe users 144792 Apr 16 17:26 fort.11
-rw-r--r-- 1 giuseppe users 866920 Apr 16 17:26 fort.13
-rw-r--r-- 1 giuseppe users 144792 Apr 16 17:26 fort.3
-rw-r--r-- 1 giuseppe users 336100 Apr 16 17:26 fort.9
-rw-r--r-- 1 giuseppe users 864917 Apr 16 17:26 fort.98
file fort.98 saved as /home/giuseppe/Urea/urea_cry_trho.f98
file fort.13 saved as /home/giuseppe/Urea/urea_cry_trho.f13
removing temporary directories /local/giuseppe//tmp_p1992_giuseppe
