date Mon 16 Apr 18:56:45 BST 2018
master hostname nhpc16
system Linux nhpc16 4.4.74-18.20-default #1 SMP Fri Jun 30 19:01:19 UTC 2017 (b5079b8) x86_64 x86_64 x86_64 GNU/Linux
user giuseppe
output data in /home/giuseppe/Urea/urea_mol_plot.outp
properties in /prog/x86_64/crystal/CRYSTAL17/bin/Linux-ifort/intel-suite___2016.3
input data in /home/giuseppe/Urea/urea_mol_plot.d3
temporary directory /local/giuseppe//tmp_p7709_giuseppe
wave function data from /home/giuseppe/Urea/urea_mol.f9
wave function formatted data from /home/giuseppe/Urea/urea_mol.f98
TOPO
PL2D      plot plane N-O-N origin mid-point N-N (X axis), w. sh. to put C at c.
6
5
3
3                                   ISHFT=3
0.5                                 VMOD
30,15.0
1                                   ICONT=1
-4.,4.,.05
-4.,4.,.05
1,1,1,1,1,1,1,1,1,1,1,1             IFU all set to 1
urea
0.55                                 SCALE=0.55
2.,0.0,0                               TOLER=2., TR1=0.0 , IPLANE=0
2.2,1,1,1                              THR=2.2, IL vector all set to 1
36,0                                   NPATH=36, NEXTR=0
END

         
 *******************************************************************************
 *                                                                             *
 *                               CRYSTAL17                                     *
 *                      public : 1.0.1 - Feb 1st, 2017                         *
 *                       HTTP://WWW.CRYSTAL.UNITO.IT                           *
 *                                                                             *
 *                              MAIN AUTHORS                                   *
 *                                                                             *
 *  R. DOVESI(1,11), V.R. SAUNDERS(2), C. ROETTI(1,11), R. ORLANDO(1,11),      *
 *  C.M. ZICOVICH-WILSON(1,3), F. PASCALE(4), B. CIVALLERI(1,11),              *
 *  K. DOLL(5), N.M. HARRISON(2,6), I.J. BUSH(7), Ph. D'ARCO(8),               *
 *  M. LLUNELL(9), M. CAUSA'(10), Y. NOEL(8), L. MASCHIO(1,11), A. ERBA(1,11)  *
 *  M. RE'RAT(14), S. CASASSA(1,11)                                            *
 *                                                                             *
 *        CONTRIBUTIONS TO THE CODE HAVE ALSO BEEN GIVEN BY                    *
 *                                                                             *
 *  M. FERRABONE(1,11), M. DE LA PIERRE(1,11), M. FERRERO(1,11),               *
 *  J. BAIMA(1,11), E. ALBANESE(1,11), M.F. PEINTINGER(12), R. BAST(13),       *
 *  B. KIRTMAN(15), V. LACIVITA(1,11), R. DEMICHELIS(1,16)                     *
 *  G. BRANDEBURG(17), S. SALUSTRO(1,11), G. SANSONE(1,11)                     *
 *  M.T. RUGGIERO(18)                                                          *
 *                                                                             *
 * (1) THEORETICAL CHEMISTRY GROUP - UNIVERSITA' DI TORINO - TORINO (ITALY)    *

 * (2) COMPUTATIONAL SCIENCE & ENGINEERING DEPARTMENT - STFC DARESBURY (UK)    *
 * (3) UNIVERSIDAD AUTONOMA DEL ESTADO DE MORELOS - CUERNAVACA (MEXICO)        *
 * (4) UNIVERSITE' DE LORRAINE - NANCY (FRANCE)                                *
 * (5) UNIVERSITAET STUTTGART- STUTTGART (GERMANY)                             *
 * (6) IMPERIAL COLLEGE - LONDON (UK)                                          *
 * (7) OXFORD E-RESEARCH CENTRE - OXFORD (UK)                                  *
 * (8) UPMC - SORBONNE UNIVERSITES - PARIS (FRANCE)                            *
 * (9) UNIVERSIDAD DE BARCELONA - BARCELONA (SPAIN)                            *
 *(10) UNIVERSITA' DI NAPOLI "FEDERICO II" - NAPOLI (ITALY)                    *
 *(11) NIS - NANOSTRUCTURED INTERFACES AND SURFACES - TORINO (ITALY)           *
 *(12) MPI FUER CHEMISCHE ENERGIEKONVERSION - MUELHEIM AN DER RUHR (GERMANY)   *
 *(13) UNIVERSITY OF TROMSO - TROMSO (NORWAY)                                  *
 *(14) UNIVERSITE' DE PAU ET DES PAYS DE L'ADOUR - PAU (FRANCE)                *
 *(15) UNIVERSITY OF CALIFORNIA SANTA BARBARA - SANTA BARBARA (USA)            *
 *(16) CURTIN UNIVERSITY - PERTH (AUSTRALIA)                                   *
 *(17) UNIVERSITY COLLEGE LONDON - LONDON (UK)                                 *
 *(18) CAMBRIDGE UNIVERSITY - CAMBRIDGE (UK)                                   *
 *                                                                             *
 *******************************************************************************
 EEEEEEEEEE STARTING  DATE 16 04 2018 TIME 18:56:45.9

 *******************************************************************************
 TEST12 - UREA BULK BASE 6-21 + POLARIZATION                                     
 CRYSTAL - PROPERTIES - TYPE OF CALCULATION :  RESTRICTED CLOSED SHELL
 *******************************************************************************
 HARTREE-FOCK HAMILTONIAN
 *******************************************************************************
 N. OF ATOMS PER CELL         8 COULOMB OVERLAP TOL          (T1) 10**   -6
 NUMBER OF SHELLS            28 COULOMB PENETRATION TOL      (T2) 10**   -6
 NUMBER OF AO                76 EXCHANGE OVERLAP TOL         (T3) 10**   -6
 N. OF ELECTRONS PER CELL    32 EXCHANGE PSEUDO OVP (F(G))   (T4) 10**   -6
 CORE ELECTRONS PER CELL      8 EXCHANGE PSEUDO OVP (P(G))   (T5) 10**  -12
 N. OF SYMMETRY OPERATORS     4 POLE ORDER IN MONO ZONE                   4
 *******************************************************************************
   ATOM N.AT.  SHELL    X(A)      Y(A)      Z(A)      EXAD       N.ELECT.
 *******************************************************************************
    1    6 C     4     0.000     0.000     0.000   8.000E-01       4.821
    2    8 O     4     0.000     0.000     1.261   8.000E-01       8.735
    3    7 N     4     0.000     1.148    -0.700   8.000E-01       7.716
    4    7 N     4     0.000    -1.148    -0.700   8.000E-01       7.716
    5    1 H     3     0.000     2.027    -0.203   1.100E+00       0.734
    6    1 H     3     0.000    -2.027    -0.203   1.100E+00       0.734
    7    1 H     3     0.000     1.134    -1.705   1.100E+00       0.772
    8    1 H     3     0.000    -1.134    -1.705   1.100E+00       0.772
 *******************************************************************************
 DE(K)                   0.000E+00  ENERGY LEVEL SHIFTING        0.00000
 TOTAL ENERGY -2.2378754820386E+02  CONVERGENCE ON ENER       -1.280E-08
 KIN. ENERGY   2.2350030590248E+02  VIR. COEFF.           9.99357813E-01
 N. OF SCF CYCLES               10  FERMI ENERGY              -0.367E+00
 WEIGHT OF F(I) IN F(I+1)      30
 *******************************************************************************
 TTTTTTTTTTTTTTTTTTTTTTTTTTTTTT gordsh1     TELAPSE        0.06 TCPU        0.00

 MATRIX SIZE: P(G)    5716, F(G)    2651, P(G) IRR    1758, F(G) IRR    1635
 MAX G-VECTOR INDEX FOR 1- AND 2-ELECTRON INTEGRALS   1


 CAPPA:IS1  1;IS2  1;IS3  1; K PTS MONK NET   1; SYMMOPS:K SPACE   8;G SPACE   4

 *******************************************************************************
 *                                                                             *
 *                              T O P O N D  2 0 1 3                           *
 *                                                                             *
 *           AN ELECTRON DENSITY TOPOLOGICAL ANALYSIS PROGRAM FOR              *
 *                 SYSTEMS PERIODIC IN N (N=0-3) DIMENSIONS                    *
 *                                                                             *
 *               USER MANUAL BY CARLO GATTI AND SILVIA CASASSA                 *
 *                                                                             *
 *            CNR-ISTM, ISTITUTO DI SCIENZE E TECNOLOGIE MOLECOLARI            *
 *                   VIA GOLGI 19  - I-20133 MILANO - ITALIA                   *
 *                     E-MAIL: c.gatti@istm.cnr.it                             *
 *                                                                             *
 *******************************************************************************

  TOPOND PARAMETER 

  LIM016 [INF24]        =       1000
  LIM015 [INF20]        =         28
  LIM035 [LIM016*INF5]  =       1000
  NTOMAX [LIM016*INF5]  =       8009
  INF79  [INF79]        =          8
  MAXGSTAR [INF2*INF5]  =          8

 *******************************************************************************

CRYSTAL INFORMATION ON THE REFERENCE SYSTEM:

 *******************************************************************************
 N. OF ATOMS PER CELL        8  COULOMB OVERLAP TOL         (T1) 10** -6
 NUMBER OF SHELLS           28  COULOMB PENETRATION TOL     (T2) 10** -6
 NUMBER OF AO               76  EXCHANGE OVERLAP TOL        (T3) 10** -6
 N. OF ELECTRONS PER CELL    32 EXCHANGE PSEUDO OVP (F(G))  (T4) 10** -6
 CORE ELECTRONS PER CELL     8  EXCHANGE PSEUDO OVP (P(G))  (T5) 10**-12
 N. OF SYMMETRY OPERATORS    4  POLE ORDER IN MONO ZONE                4
 *******************************************************************************
  ATOM  SHEL    X(AU)     Y(AU)     Z(AU)
 *******************************************************************************
    6 C    4     0.000     0.000     0.000
    8 O    4     0.000     0.000     2.384
    7 N    4     0.000     2.170    -1.322
    7 N    4     0.000    -2.170    -1.322
    1 H    3     0.000     3.830    -0.383
    1 H    3     0.000    -3.830    -0.383
    1 H    3     0.000     2.143    -3.222
    1 H    3     0.000    -2.143    -3.222
 *******************************************************************************
 DE(K)                  0.000E+00  CONVERGENCE ON EIGENVALUES   10**-17
 WEIGHT OF F(I) IN F(I+1)     30%  CONVERGENCE ON ENERGY        10**- 7
 TOTAL ENERGY     -2.23787548E+02  FERMI ENERGY              -3.672E-01
 KIN. ENERGY       2.23500306E+02  VIR. COEFF.           9.99357813E-01
 *******************************************************************************


***** T O P O L O G I C A L  A N A L I S Y S : P L O T 2 D   S E C T I O N  ****


 COORD. OF ATOMS (POINTS) A,B,C     : 0.000E+00 -3.830E+00 -3.833E-01
                                      0.000E+00  3.830E+00 -3.833E-01
                                      0.000E+00  2.170E+00 -1.322E+00
 ORIGIN AT ( AU; SYSTEM REF. FRAME) : 0.000E+00  0.000E+00 -3.833E-01
 ISHFT                              : 3
 ICONT                              : 1
 CLUSTER BUILDING/NUMBER OF STARS   :30
 CLUSTER BUILDING/SPHERE RADIUS(ANG): 1.500E+01

 *** CLUSTERS AROUND A,B,C ATOMS (POINTS) ***
(DIST. REFERS TO THE CENTER OF THE CLUSTER)

 ATOM (POINT) N.     1 CLUSTER OF     8 ATOMS
 SEQ. NO.
 NEW  OLD  CELL    AT. NO.        COORD. (AU)           DISTANCE (ANG)
     1       4       0     0     0       7      0.000  -2.170  -1.322          1.009
     2       8       0     0     0       1      0.000  -2.143  -3.222          1.747
     3       1       0     0     0       6      0.000   0.000   0.000          2.037
     4       2       0     0     0       8      0.000   0.000   2.384          2.500
     5       3       0     0     0       7      0.000   2.170  -1.322          3.213
     6       7       0     0     0       1      0.000   2.143  -3.222          3.499
     7       5       0     0     0       1      0.000   3.830  -0.383          4.053

 ATOM (POINT) N.     2 CLUSTER OF     8 ATOMS
 SEQ. NO.
 NEW  OLD  CELL    AT. NO.        COORD. (AU)           DISTANCE (ANG)
     1       3       0     0     0       7      0.000   2.170  -1.322          1.009
     2       7       0     0     0       1      0.000   2.143  -3.222          1.747
     3       1       0     0     0       6      0.000   0.000   0.000          2.037
     4       2       0     0     0       8      0.000   0.000   2.384          2.500
     5       4       0     0     0       7      0.000  -2.170  -1.322          3.213
     6       8       0     0     0       1      0.000  -2.143  -3.222          3.499
     7       6       0     0     0       1      0.000  -3.830  -0.383          4.053

 ATOM (POINT) N.     3 CLUSTER OF     8 ATOMS
 SEQ. NO.
 NEW  OLD  CELL    AT. NO.        COORD. (AU)           DISTANCE (ANG)
     1       7       0     0     0       1      0.000   2.143  -3.222          1.005
     2       5       0     0     0       1      0.000   3.830  -0.383          1.009
     3       1       0     0     0       6      0.000   0.000   0.000          1.345
     4       2       0     0     0       8      0.000   0.000   2.384          2.273
     5       4       0     0     0       7      0.000  -2.170  -1.322          2.296
     6       8       0     0     0       1      0.000  -2.143  -3.222          2.494
     7       6       0     0     0       1      0.000  -3.830  -0.383          3.213

 *** ATOMS (POINTS): AT. N. AND TRASFORMED COORD.(AU) IN THE PLOT REF. FRAME ***

      1      -3.8296E+00       0.0000E+00       0.0000E+00
      1       3.8296E+00       0.0000E+00       0.0000E+00
      7       2.1699E+00       9.3914E-01       0.0000E+00
      7      -2.1699E+00       9.3914E-01       0.0000E+00
      1      -2.1431E+00       2.8387E+00       0.0000E+00
      6       0.0000E+00      -3.8327E-01       0.0000E+00
      8       0.0000E+00      -2.7670E+00       0.0000E+00
      1       2.1431E+00       2.8387E+00       0.0000E+00

 *** PLOT INFORMATION ***

 EULER ANGLES                       : 0.000E+00  9.000E+01  2.700E+02
 ROTAT. MATRIX                      : 0.000E+00  1.000E+00  0.000E+00
                                      0.000E+00  0.000E+00 -1.000E+00
                                     -1.000E+00  0.000E+00  0.000E+00
 COORDINATES, AT. N. OF ATOMS A,B,C : 0.000E+00 -3.830E+00 -3.833E-01   1
                                      0.000E+00  3.830E+00 -3.833E-01   1
                                      0.000E+00  2.170E+00 -1.322E+00   7
 ORIGIN AT ( AU; SYSTEM REF. FRAME) : 0.000E+00  0.000E+00 -3.833E-01
 X AXIS RANGES AND INCREMENTS (ANG) :-4.000E+00  4.000E+00  5.000E-02
 Y AXIS RANGES AND INCREMENTS (ANG) :-4.000E+00  4.000E+00  5.000E-02
 IPSIZE(A3=1,A4=2), SCALE(ANG/CM)   :     2          5.500E-01
 TOLERA (ANG), TR1 (ANG), IPLANE    : 2.000E+00  1.000E-04   0
 THR (ANG), IL(K),K=1,3             : 2.200E+00   1   1   1
 N. GRHO TRAJ. FROM EACH 3,-3 CP    :36
 PLOTTED FUNCTIONS                  : ELECTRON DENSITY RHO                      
                                      SPIN DENSITY (RHOA-RHOB)                  
                                      LAPLACIAN OF RHO                          
                                      NEGATIVE OF THE LAPLACIAN OF RHO          
                                      MAGNITUDE OF GRAD(RHO)                    
                                      HAMILTONIAN KINETIC ENERGY K(R)           
                                      LAGRANGIAN KINETIC ENERGY G(R)            
                                      VIRIAL FIELD DENSITY                      
                                      BECKE ELECTRON LOCALIZATION FUNCTION      
                                      GRAD(RHO) TRAJECTORIES                    
                                      MOLECULAR GRAPH                           
                                      GRAD(RHO) TRAJECTORIES AND MOLECULAR GRAPH
 FUNCTION FILES                     : SURFRHOO.DAT                    
                                      SURFSPDE.DAT                    
                                      SURFLAPP.DAT                    
                                      SURFLAPM.DAT                    
                                      SURFGRHO.DAT                    
                                      SURFKKIN.DAT                    
                                      SURFGKIN.DAT                    
                                      SURFVIRI.DAT                    
                                      SURFELFB.DAT                    
                                      TRAJGRAD.DAT                    
                                      MOLGRAPH.DAT                    
                                      TRAJMOLG.DAT                    
 INFORM. FILE                       : P2DCRYIN.DAT                    
 TTTTTTTTTTTTTTTTTTTTTTTTTTTTTT PL2D        TELAPSE        4.29 TCPU        4.23
 TTTTTTTTTTTTTTTTTTTTTTTTTTTTTT END         TELAPSE        4.29 TCPU        4.23
 EEEEEEEEEE TERMINATION  DATE 16 04 2018 TIME 18:56:50.2
Mon 16 Apr 18:56:50 BST 2018
Contents of temporary directory:
total 5936
-rw-r--r-- 1 giuseppe users   21216 Apr 16 18:56 fort.11
-rw-r--r-- 1 giuseppe users   45736 Apr 16 18:56 fort.13
-rw-r--r-- 1 giuseppe users   21216 Apr 16 18:56 fort.3
-rw-r--r-- 1 giuseppe users   56348 Apr 16 18:56 fort.9
-rw-r--r-- 1 giuseppe users  145067 Apr 16 18:56 fort.98
-rw-r--r-- 1 giuseppe users  289151 Apr 16 18:56 MOLGRAPH.DAT
-rw-r--r-- 1 giuseppe users     894 Apr 16 18:56 P2DCRYIN.DAT
-rw-r--r-- 1 giuseppe users  414878 Apr 16 18:56 SURFELFB.DAT
-rw-r--r-- 1 giuseppe users  414878 Apr 16 18:56 SURFGKIN.DAT
-rw-r--r-- 1 giuseppe users  414878 Apr 16 18:56 SURFGRHO.DAT
-rw-r--r-- 1 giuseppe users  414878 Apr 16 18:56 SURFKKIN.DAT
-rw-r--r-- 1 giuseppe users  414878 Apr 16 18:56 SURFLAPM.DAT
-rw-r--r-- 1 giuseppe users  414878 Apr 16 18:56 SURFLAPP.DAT
-rw-r--r-- 1 giuseppe users  414878 Apr 16 18:56 SURFRHOO.DAT
-rw-r--r-- 1 giuseppe users  414878 Apr 16 18:56 SURFSPDE.DAT
-rw-r--r-- 1 giuseppe users  414878 Apr 16 18:56 SURFVIRI.DAT
-rw-r--r-- 1 giuseppe users  713038 Apr 16 18:56 TRAJGRAD.DAT
-rw-r--r-- 1 giuseppe users 1002189 Apr 16 18:56 TRAJMOLG.DAT
file fort.98 saved as /home/giuseppe/Urea/urea_mol_plot.f98
file fort.13 saved as /home/giuseppe/Urea/urea_mol_plot.f13
file P2DCRYIN.DAT saved as /home/giuseppe/Urea/P2DCRYIN.DAT
file SURFELFB.DAT saved as /home/giuseppe/Urea/SURFELFB.DAT
file SURFGKIN.DAT saved as /home/giuseppe/Urea/SURFGKIN.DAT
file SURFGRHO.DAT saved as /home/giuseppe/Urea/SURFGRHO.DAT
file SURFKKIN.DAT saved as /home/giuseppe/Urea/SURFKKIN.DAT
file SURFLAPM.DAT saved as /home/giuseppe/Urea/SURFLAPM.DAT
file SURFLAPP.DAT saved as /home/giuseppe/Urea/SURFLAPP.DAT
file SURFRHOO.DAT saved as /home/giuseppe/Urea/SURFRHOO.DAT
file SURFSPDE.DAT saved as /home/giuseppe/Urea/SURFSPDE.DAT
file SURFVIRI.DAT saved as /home/giuseppe/Urea/SURFVIRI.DAT
file TRAJGRAD.DAT saved as /home/giuseppe/Urea/TRAJGRAD.DAT
file TRAJMOLG.DAT saved as /home/giuseppe/Urea/TRAJMOLG.DAT
removing temporary directories /local/giuseppe//tmp_p7709_giuseppe
