
         
 *******************************************************************************
 *                                                                             *
 *                                CRYSTAL99                                    *
 *                              develop : 1.0                                  *
 *                      Jan 4th, 2011 - sequential executable                  *
 *                                                                             *
 *                                                                             *
 *                                                                             *
 *                              MAIN AUTHORS                                   *
 *                                                                             *
 *    R. DOVESI(1,10), V.R. SAUNDERS(2), C. ROETTI(1,10), R. ORLANDO (1,3),    *
 *  C.M. ZICOVICH-WILSON(1,4), F. PASCALE(5), B. CIVALLERI(1,10), K. DOLL(6),  *
 *       N.M. HARRISON(2,7), I. J. BUSH(2), Ph. D'ARCO(8), M. LLUNELL(9)       *
 *                                                                             *
 * (1) THEORETICAL CHEMISTRY GROUP - UNIVERSITA' DI TORINO - TORINO (ITALY)    *
 *      http://www.crystal.unito.it                                            *
 * (2) COMPUTATIONAL SCIENCE & ENGINEERING DEPARTMENT - CCLRC DARESBURY (UK)   *
 *     http://www.cse.clrc.ac.uk/cmg/CRYSTAL/                                  *
 * (3) UNIVERSITA' DEL PIEMONTE ORIENTALE - ALESSANDRIA (ITALY)                *
 * (4) UNIVERSIDAD AUTONOMA DEL ESTADO DE MORELOS - CUERNAVACA (MEXICO)        *
 * (5) UNIVERSITE' HENRI POINCARE' - NANCY (FRANCE)                            *
 * (6) MPI FUER FESTKOERPERFORSCHUNG - STUTTGART (GERMANY)                     *
 * (7) IMPERIAL COLLEGE - LONDON (UK)                                          *
 * (8) UNIVERSITE' PIERRE ET MARIE CURIE - PARIS (FRANCE)                      *
 * (9) UNIVERSIDAD DE BARCELONA - BARCELONA (SPAIN)                            *
 *(10) NIS - NANOSTRUCTURED INTERFACES AND SURFACES - TORINO (ITALY)           *
 *     http://www.crystal.unito.it                                             *
 *******************************************************************************
 EEEEEEEEEE STARTING  DATE 30 08 2013 TIME 09:05:58.8
 TEST12 - UREA BULK BASE 6-21 + POLARIZATION                                     

 MOLECULAR CALCULATION
 POINT  GROUP  N. 15                  :  MM2    OR  C2V  
 CORRESPONDING SPACE GROUP            :  P M M 2         


 NUMBER OF IRREDUCIBLE ATOMS IN THE CONVENTIONAL CELL:    5

 INPUT COORDINATES

 ATOM AT. N.              COORDINATES
   1   6     0.000000000000E+00  0.000000000000E+00  0.000000000000E+00
   2   8     0.000000000000E+00  0.000000000000E+00  1.261401000000E+00
   3   7     0.000000000000E+00  1.148246660340E+00 -6.997900000000E-01
   4   1     0.000000000000E+00  2.026549650100E+00 -2.028170000000E-01
   5   1     0.000000000000E+00  1.134080483080E+00 -1.704975000000E+00

 COORDINATES OF THE EQUIVALENT ATOMS (ANGSTROMS)

 N. ATOM EQUIV AT. N.          X                  Y                  Z

   1   1   1    6 C     0.00000000000E+00  0.00000000000E+00  0.00000000000E+00

   2   2   1    8 O     0.00000000000E+00  0.00000000000E+00  1.26140100000E+00

   3   3   1    7 N     0.00000000000E+00  1.14824666034E+00 -6.99790000000E-01
   4   3   2    7 N     0.00000000000E+00 -1.14824666034E+00 -6.99790000000E-01

   5   4   1    1 H     0.00000000000E+00  2.02654965010E+00 -2.02817000000E-01
   6   4   2    1 H     0.00000000000E+00 -2.02654965010E+00 -2.02817000000E-01

   7   5   1    1 H     0.00000000000E+00  1.13408048308E+00 -1.70497500000E+00
   8   5   2    1 H     0.00000000000E+00 -1.13408048308E+00 -1.70497500000E+00

 NUMBER OF SYMMETRY OPERATORS         :    4
 *******************************************************************************
 * GEOMETRY EDITING - INPUT COORDINATES ARE GIVEN IN ANGSTROM         
 *******************************************************************************

 GEOMETRY NOW FULLY CONSISTENT WITH THE GROUP

 GEOMETRY FOR WAVE FUNCTION - DIMENSIONALITY OF THE SYSTEM    0
 (NON PERIODIC DIRECTION: LATTICE PARAMETER FORMALLY SET TO 500)
 *******************************************************************************
 ATOMS IN THE ASYMMETRIC UNIT    5 - ATOMS IN THE UNIT CELL:    8
     ATOM          X(ANGSTROM)         Y(ANGSTROM)         Z(ANGSTROM)
 *******************************************************************************
   1 T   6 C     0.000000000000E+00  0.000000000000E+00  0.000000000000E+00
   2 T   8 O     0.000000000000E+00  0.000000000000E+00  1.261401000000E+00
   3 T   7 N     0.000000000000E+00  1.148246660340E+00 -6.997900000000E-01
   4 F   7 N     0.000000000000E+00 -1.148246660340E+00 -6.997900000000E-01
   5 T   1 H     0.000000000000E+00  2.026549650100E+00 -2.028170000000E-01
   6 F   1 H     0.000000000000E+00 -2.026549650100E+00 -2.028170000000E-01
   7 T   1 H     0.000000000000E+00  1.134080483080E+00 -1.704975000000E+00
   8 F   1 H     0.000000000000E+00 -1.134080483080E+00 -1.704975000000E+00

 T = ATOM BELONGING TO THE ASYMMETRIC UNIT

 ****   4 SYMMOPS - TRANSLATORS IN FRACTIONAL UNITS
 **** MATRICES AND TRANSLATORS IN THE CRYSTALLOGRAPHIC REFERENCE FRAME
  V INV                   ROTATION MATRICES                       TRANSLATOR
  1  1  1.00  0.00  0.00  0.00  1.00  0.00  0.00  0.00  1.00    0.00  0.00  0.00
  2  2 -1.00  0.00  0.00  0.00 -1.00  0.00  0.00  0.00  1.00    0.00  0.00  0.00
  3  3 -1.00  0.00  0.00  0.00  1.00  0.00  0.00  0.00  1.00    0.00  0.00  0.00
  4  4  1.00  0.00  0.00  0.00 -1.00  0.00  0.00  0.00  1.00    0.00  0.00  0.00

 *******************************************************************************
 LOCAL ATOMIC FUNCTIONS BASIS SET
 *******************************************************************************
   ATOM  X(AU)  Y(AU)  Z(AU)    NO. TYPE  EXPONENT  S COEF   P COEF   D/F/G COEF
 *******************************************************************************
   1 C           0.000          0.000          0.000
                                  1 S  
                                         3.048E+03 1.826E-03 0.000E+00 0.000E+00
                                         4.564E+02 1.406E-02 0.000E+00 0.000E+00
                                         1.037E+02 6.876E-02 0.000E+00 0.000E+00
                                         2.923E+01 2.304E-01 0.000E+00 0.000E+00
                                         9.349E+00 4.685E-01 0.000E+00 0.000E+00
                                         3.189E+00 3.628E-01 0.000E+00 0.000E+00
                             2-   5 SP 
                                         3.665E+00-3.959E-01 2.365E-01 0.000E+00
                                         7.705E-01 1.216E+00 8.606E-01 0.000E+00
                             6-   9 SP 
                                         1.959E-01 1.000E+00 1.000E+00 0.000E+00
                            10-  14 D  
                                         8.000E-01 0.000E+00 0.000E+00 1.000E+00
   2 O           0.000          0.000          2.384
                                 15 S  
                                         5.472E+03 1.832E-03 0.000E+00 0.000E+00
                                         8.178E+02 1.410E-02 0.000E+00 0.000E+00
                                         1.864E+02 6.863E-02 0.000E+00 0.000E+00
                                         5.302E+01 2.294E-01 0.000E+00 0.000E+00
                                         1.718E+01 4.664E-01 0.000E+00 0.000E+00
                                         5.912E+00 3.642E-01 0.000E+00 0.000E+00
                            16-  19 SP 
                                         7.403E+00-4.045E-01 2.446E-01 0.000E+00
                                         1.576E+00 1.222E+00 8.540E-01 0.000E+00
                            20-  23 SP 
                                         3.737E-01 1.000E+00 1.000E+00 0.000E+00
                            24-  28 D  
                                         8.000E-01 0.000E+00 0.000E+00 1.000E+00
   3 N           0.000          2.170         -1.322
                                 29 S  
                                         4.150E+03 1.845E-03 0.000E+00 0.000E+00
                                         6.201E+02 1.416E-02 0.000E+00 0.000E+00
                                         1.417E+02 6.863E-02 0.000E+00 0.000E+00
                                         4.034E+01 2.286E-01 0.000E+00 0.000E+00
                                         1.303E+01 4.662E-01 0.000E+00 0.000E+00
                                         4.470E+00 3.657E-01 0.000E+00 0.000E+00
                            30-  33 SP 
                                         5.425E+00-4.133E-01 2.380E-01 0.000E+00
                                         1.149E+00 1.224E+00 8.590E-01 0.000E+00
                            34-  37 SP 
                                         2.832E-01 1.000E+00 1.000E+00 0.000E+00
                            38-  42 D  
                                         8.000E-01 0.000E+00 0.000E+00 1.000E+00
   4 N           0.000         -2.170         -1.322
   5 H           0.000          3.830         -0.383
                                 57 S  
                                         5.447E+00 1.563E-01 0.000E+00 0.000E+00
                                         8.245E-01 9.047E-01 0.000E+00 0.000E+00
                                 58 S  
                                         1.832E-01 1.000E+00 0.000E+00 0.000E+00
                            59-  61 P  
                                         1.100E+00 0.000E+00 1.000E+00 0.000E+00
   6 H           0.000         -3.830         -0.383
   7 H           0.000          2.143         -3.222
   8 H           0.000         -2.143         -3.222
 INFORMATION **** READM2 **** NEW DEFAULT: FOCK/KS MATRIX MIXING SET TO 30 %
 INFORMATION **** READM2 **** NEW DEFAULT: FULL DIRECT SCF MODE
 INFORMATION **** READM2 **** NEW DEFAULT: COULOMB BIPOLAR BUFFER SET TO 32 Mb
 INFORMATION **** READM2 **** NEW DEFAULT: EXCHANGE BIPOLAR BUFFER SET TO 32 Mb
 INFORMATION **** READM2 **** NEW DEFAULT: INTEGRAL TOLERANCES SET TO 7 7 7 7 14
 INFORMATION **** TOLDEE **** SCF TOL ON TOTAL ENERGY SET TO           7
 *******************************************************************************
 N. OF ATOMS PER CELL        8  COULOMB OVERLAP TOL         (T1) 10**   -7
 NUMBER OF SHELLS           28  COULOMB PENETRATION TOL     (T2) 10**   -7
 NUMBER OF AO               76  EXCHANGE OVERLAP TOL        (T3) 10**   -7
 N. OF ELECTRONS PER CELL   32  EXCHANGE PSEUDO OVP (F(G))  (T4) 10**   -7
 CORE ELECTRONS PER CELL     8  EXCHANGE PSEUDO OVP (P(G))  (T5) 10**  -14
 N. OF SYMMETRY OPERATORS    4  POLE ORDER IN MONO ZONE                4
 *******************************************************************************
 TYPE OF CALCULATION :  RESTRICTED CLOSED SHELL
 HARTREE-FOCK HAMILTONIAN

 CAPPA:IS1  1;IS2  1;IS3  1; K PTS MONK NET    1; SYMMOPS: K SPACE  8;G SPACE  4

 *******************************************************************************
 MAX NUMBER OF SCF CYCLES      50  CONVERGENCE ON DELTAP        10**-17
 WEIGHT OF F(I) IN F(I+1)      30% CONVERGENCE ON ENERGY        10**- 7

 DISK SPACE FOR EIGENVECTORS (FTN 10)       5776 REALS

 SYMMETRY ADAPTION OF THE BLOCH FUNCTIONS ENABLED

 MATRIX SIZE: P(G)    5728, F(G)    2697, P(G) IRR    1761, F(G) IRR    1658
 MAX G-VECTOR INDEX FOR 1- AND 2-ELECTRON INTEGRALS   1

 TTTTTTTTTTTTTTTTTTTTTTTTTTTTTT INPUT       TELAPSE        0.00 TCPU        0.00

 NEIGHBORS OF THE NON-EQUIVALENT ATOMS

 N = NUMBER OF NEIGHBORS AT DISTANCE R
    ATOM  N     R/ANG      R/AU   NEIGHBORS (ATOM LABELS AND CELL INDICES)
   1 C    1     1.2614     2.3837   2 O    0 0 0
   1 C    2     1.3447     2.5411   3 N    0 0 0   4 N    0 0 0
   1 C    2     2.0367     3.8488   5 H    0 0 0   6 H    0 0 0
   1 C    2     2.0477     3.8696   7 H    0 0 0   8 H    0 0 0

   2 O    1     1.2614     2.3837   1 C    0 0 0
   2 O    2     2.2726     4.2946   3 N    0 0 0   4 N    0 0 0
   2 O    2     2.5002     4.7246   5 H    0 0 0   6 H    0 0 0
   2 O    2     3.1758     6.0013   7 H    0 0 0   8 H    0 0 0

   3 N    1     1.0053     1.8997   7 H    0 0 0
   3 N    1     1.0092     1.9070   5 H    0 0 0
   3 N    1     1.3447     2.5411   1 C    0 0 0
   3 N    1     2.2726     4.2946   2 O    0 0 0
   3 N    1     2.2965     4.3397   4 N    0 0 0
   3 N    1     2.4939     4.7127   8 H    0 0 0

   5 H    1     1.0092     1.9070   3 N    0 0 0
   5 H    1     1.7473     3.3019   7 H    0 0 0
   5 H    1     2.0367     3.8488   1 C    0 0 0
   5 H    1     2.5002     4.7246   2 O    0 0 0
   5 H    1     3.2135     6.0726   4 N    0 0 0
   5 H    1     3.4994     6.6130   8 H    0 0 0

   7 H    1     1.0053     1.8997   3 N    0 0 0
   7 H    1     1.7473     3.3019   5 H    0 0 0
   7 H    1     2.0477     3.8696   1 C    0 0 0
   7 H    1     2.2682     4.2862   8 H    0 0 0
   7 H    1     2.4939     4.7127   4 N    0 0 0
   7 H    1     3.1758     6.0013   2 O    0 0 0


 SYMMETRY ALLOWED INTERNAL DEGREE(S) OF FREEDOM:   7
 TTTTTTTTTTTTTTTTTTTTTTTTTTTTTT SYMM        TELAPSE        0.00 TCPU        0.00
 TTTTTTTTTTTTTTTTTTTTTTTTTTTTTT INT_SCREEN  TELAPSE        0.00 TCPU        0.00
 INFORMATION **** EXCBUF **** EXCH. BIPO BUFFER: WORDS USED =       54702
 TTTTTTTTTTTTTTTTTTTTTTTTTTTTTT INT_CALC    TELAPSE        0.01 TCPU        0.01
 EEEEEEEEEE INT_CALC TERMINATION  DATE 30 08 2013 TIME 09:05:58.8

 *******************************************************************************
 TEST12 - UREA BULK BASE 6-21 + POLARIZATION                                     
 CRYSTAL - SCF - TYPE OF CALCULATION :  RESTRICTED CLOSED SHELL
 *******************************************************************************

 CAPPA:IS1  1;IS2  1;IS3  1; K PTS MONK NET    1; SYMMOPS: K SPACE  8;G SPACE  4

 TTTTTTTTTTTTTTTTTTTTTTTTTTTTTT SDIK        TELAPSE        0.01 TCPU        0.01

 AAAAAAAAAAAAAAAAAAAAAAAAAAAAAAAAAAAAAAAAAAAAAAAAAAAAAAAAAAAAAAAAAAAAAAAAAAAAAAA
         ATOMIC WAVEFUNCTION(S)


 NUCLEAR CHARGE  6.0  SYMMETRY SPECIES            S    P
 N. ELECTRONS    6.0  NUMBER OF PRIMITIVE GTOS    9    3
                      NUMBER OF CONTRACTED GTOS   3    2
                      NUMBER OF CLOSED SHELLS     2    0
                      OPEN SHELL OCCUPATION       0    2

  ZNUC SCFIT  TOTAL HF ENERGY   KINETIC ENERGY   VIRIAL THEOREM ACCURACY
   6.0   9   -3.765831823E+01  3.765320062E+01 -2.000135914E+00  1.5E-06

 NUCLEAR CHARGE  8.0  SYMMETRY SPECIES            S    P
 N. ELECTRONS    8.0  NUMBER OF PRIMITIVE GTOS    9    3
                      NUMBER OF CONTRACTED GTOS   3    2
                      NUMBER OF CLOSED SHELLS     2    0
                      OPEN SHELL OCCUPATION       0    4

  ZNUC SCFIT  TOTAL HF ENERGY   KINETIC ENERGY   VIRIAL THEOREM ACCURACY
   8.0  10   -7.469910437E+01  7.469021188E+01 -2.000119058E+00  4.4E-06

 NUCLEAR CHARGE  7.0  SYMMETRY SPECIES            S    P
 N. ELECTRONS    7.0  NUMBER OF PRIMITIVE GTOS    9    3
                      NUMBER OF CONTRACTED GTOS   3    2
                      NUMBER OF CLOSED SHELLS     2    0
                      OPEN SHELL OCCUPATION       0    3

  ZNUC SCFIT  TOTAL HF ENERGY   KINETIC ENERGY   VIRIAL THEOREM ACCURACY
   7.0   8   -5.434075198E+01  5.432977783E+01 -2.000201992E+00  3.0E-06

 NUCLEAR CHARGE  1.0  SYMMETRY SPECIES            S
 N. ELECTRONS    1.0  NUMBER OF PRIMITIVE GTOS    3
                      NUMBER OF CONTRACTED GTOS   2
                      NUMBER OF CLOSED SHELLS     0
                      OPEN SHELL OCCUPATION       1

  ZNUC SCFIT  TOTAL HF ENERGY   KINETIC ENERGY   VIRIAL THEOREM ACCURACY
   1.0   1   -4.961986360E-01  5.144743151E-01 -1.964476984E+00  0.0E+00

 AAAAAAAAAAAAAAAAAAAAAAAAAAAAAAAAAAAAAAAAAAAAAAAAAAAAAAAAAAAAAAAAAAAAAAAAAAAAAAA

 CHARGE NORMALIZATION FACTOR   1.00000000
 TOTAL ATOMIC CHARGES:
   6.0000000   8.0000000   7.0000000   7.0000000   1.0000000   1.0000000
   1.0000000   1.0000000
 TTTTTTTTTTTTTTTTTTTTTTTTTTTTTT MOQGAD      TELAPSE        0.02 TCPU        0.02
 TTTTTTTTTTTTTTTTTTTTTTTTTTTTTT SHELLX      TELAPSE        0.92 TCPU        0.92
 TTTTTTTTTTTTTTTTTTTTTTTTTTTTTT MONMO3      TELAPSE        0.92 TCPU        0.92
 CYC   0 ETOT(AU) -2.248960101063E+02 DETOT -2.25E+02 tst  0.00E+00 PX  1.00E+00
 TTTTTTTTTTTTTTTTTTTTTTTTTTTTTT FDIK        TELAPSE        0.93 TCPU        0.93
 INSULATING STATE
 TOP OF VALENCE BANDS -    BAND     16; K    1; EIG -2.8674511E-01 AU
 BOTTOM OF VIRTUAL BANDS - BAND     17; K    1; EIG  1.4762112E-01 AU
 TTTTTTTTTTTTTTTTTTTTTTTTTTTTTT PDIG        TELAPSE        0.93 TCPU        0.93
 CHARGE NORMALIZATION FACTOR   1.00000000
 TOTAL ATOMIC CHARGES:
   4.6276010   9.1196047   7.7243358   7.7243358   0.7008746   0.7008746
   0.7011867   0.7011867
 TTTTTTTTTTTTTTTTTTTTTTTTTTTTTT MOQGAD      TELAPSE        0.93 TCPU        0.93
 TTTTTTTTTTTTTTTTTTTTTTTTTTTTTT SHELLX      TELAPSE        1.87 TCPU        1.86
 TTTTTTTTTTTTTTTTTTTTTTTTTTTTTT MONMO3      TELAPSE        1.87 TCPU        1.87
 CYC   1 ETOT(AU) -2.236760418958E+02 DETOT  1.22E+00 tst  0.00E+00 PX  1.00E+00
 TTTTTTTTTTTTTTTTTTTTTTTTTTTTTT FDIK        TELAPSE        1.88 TCPU        1.87
 INSULATING STATE
 TOP OF VALENCE BANDS -    BAND     16; K    1; EIG -2.9359240E-01 AU
 BOTTOM OF VIRTUAL BANDS - BAND     17; K    1; EIG  1.9323276E-01 AU
 TTTTTTTTTTTTTTTTTTTTTTTTTTTTTT PDIG        TELAPSE        1.88 TCPU        1.87
 CHARGE NORMALIZATION FACTOR   1.00000000
 TOTAL ATOMIC CHARGES:
   4.9581796   8.6780521   7.7326708   7.7326708   0.7078260   0.7078260
   0.7413874   0.7413874
 TTTTTTTTTTTTTTTTTTTTTTTTTTTTTT MOQGAD      TELAPSE        1.88 TCPU        1.88
 TTTTTTTTTTTTTTTTTTTTTTTTTTTTTT SHELLX      TELAPSE        2.82 TCPU        2.81
 TTTTTTTTTTTTTTTTTTTTTTTTTTTTTT MONMO3      TELAPSE        2.82 TCPU        2.82
 CYC   2 ETOT(AU) -2.237748001534E+02 DETOT -9.88E-02 tst  5.07E-03 PX  1.15E-01
 TTTTTTTTTTTTTTTTTTTTTTTTTTTTTT FDIK        TELAPSE        2.82 TCPU        2.82
 INSULATING STATE
 TOP OF VALENCE BANDS -    BAND     16; K    1; EIG -3.5879795E-01 AU
 BOTTOM OF VIRTUAL BANDS - BAND     17; K    1; EIG  2.2397037E-01 AU
 TTTTTTTTTTTTTTTTTTTTTTTTTTTTTT PDIG        TELAPSE        2.82 TCPU        2.82
 CHARGE NORMALIZATION FACTOR   1.00000000
 TOTAL ATOMIC CHARGES:
   4.8371369   8.7655745   7.7128823   7.7128823   0.7254122   0.7254122
   0.7603498   0.7603498
 TTTTTTTTTTTTTTTTTTTTTTTTTTTTTT MOQGAD      TELAPSE        2.83 TCPU        2.82
 TTTTTTTTTTTTTTTTTTTTTTTTTTTTTT SHELLX      TELAPSE        3.76 TCPU        3.76
 TTTTTTTTTTTTTTTTTTTTTTTTTTTTTT MONMO3      TELAPSE        3.77 TCPU        3.76
 CYC   3 ETOT(AU) -2.237852243763E+02 DETOT -1.04E-02 tst  2.84E-04 PX  3.33E-02
 TTTTTTTTTTTTTTTTTTTTTTTTTTTTTT FDIK        TELAPSE        3.77 TCPU        3.77
 INSULATING STATE
 TOP OF VALENCE BANDS -    BAND     16; K    1; EIG -3.6145627E-01 AU
 BOTTOM OF VIRTUAL BANDS - BAND     17; K    1; EIG  2.3104174E-01 AU
 TTTTTTTTTTTTTTTTTTTTTTTTTTTTTT PDIG        TELAPSE        3.77 TCPU        3.77
 CHARGE NORMALIZATION FACTOR   1.00000000
 TOTAL ATOMIC CHARGES:
   4.8403426   8.7358818   7.7189436   7.7189436   0.7276999   0.7276999
   0.7652442   0.7652442
 TTTTTTTTTTTTTTTTTTTTTTTTTTTTTT MOQGAD      TELAPSE        3.78 TCPU        3.77
 TTTTTTTTTTTTTTTTTTTTTTTTTTTTTT SHELLX      TELAPSE        4.71 TCPU        4.71
 TTTTTTTTTTTTTTTTTTTTTTTTTTTTTT MONMO3      TELAPSE        4.72 TCPU        4.71
 CYC   4 ETOT(AU) -2.237869794906E+02 DETOT -1.76E-03 tst  1.29E-04 PX  1.04E-02
 TTTTTTTTTTTTTTTTTTTTTTTTTTTTTT FDIK        TELAPSE        4.72 TCPU        4.72
 INSULATING STATE
 TOP OF VALENCE BANDS -    BAND     16; K    1; EIG -3.6576327E-01 AU
 BOTTOM OF VIRTUAL BANDS - BAND     17; K    1; EIG  2.3557764E-01 AU
 TTTTTTTTTTTTTTTTTTTTTTTTTTTTTT PDIG        TELAPSE        4.72 TCPU        4.72
 CHARGE NORMALIZATION FACTOR   1.00000000
 TOTAL ATOMIC CHARGES:
   4.8271105   8.7393185   7.7172961   7.7172961   0.7306944   0.7306944
   0.7687950   0.7687950
 TTTTTTTTTTTTTTTTTTTTTTTTTTTTTT MOQGAD      TELAPSE        4.72 TCPU        4.72
 TTTTTTTTTTTTTTTTTTTTTTTTTTTTTT SHELLX      TELAPSE        5.66 TCPU        5.66
 TTTTTTTTTTTTTTTTTTTTTTTTTTTTTT MONMO3      TELAPSE        5.67 TCPU        5.66
 CYC   5 ETOT(AU) -2.237873924003E+02 DETOT -4.13E-04 tst  9.47E-06 PX  4.62E-03
 TTTTTTTTTTTTTTTTTTTTTTTTTTTTTT FDIK        TELAPSE        5.67 TCPU        5.66
 INSULATING STATE
 TOP OF VALENCE BANDS -    BAND     16; K    1; EIG -3.6657287E-01 AU
 BOTTOM OF VIRTUAL BANDS - BAND     17; K    1; EIG  2.3715877E-01 AU
 TTTTTTTTTTTTTTTTTTTTTTTTTTTTTT PDIG        TELAPSE        5.67 TCPU        5.66
 CHARGE NORMALIZATION FACTOR   1.00000000
 TOTAL ATOMIC CHARGES:
   4.8243198   8.7368567   7.7171105   7.7171105   0.7319769   0.7319769
   0.7703243   0.7703243
 TTTTTTTTTTTTTTTTTTTTTTTTTTTTTT MOQGAD      TELAPSE        5.67 TCPU        5.67
 TTTTTTTTTTTTTTTTTTTTTTTTTTTTTT SHELLX      TELAPSE        6.61 TCPU        6.60
 TTTTTTTTTTTTTTTTTTTTTTTTTTTTTT MONMO3      TELAPSE        6.61 TCPU        6.61
 CYC   6 ETOT(AU) -2.237875143375E+02 DETOT -1.22E-04 tst  8.26E-06 PX  2.40E-03
 TTTTTTTTTTTTTTTTTTTTTTTTTTTTTT FDIK        TELAPSE        6.61 TCPU        6.61
 INSULATING STATE
 TOP OF VALENCE BANDS -    BAND     16; K    1; EIG -3.6706112E-01 AU
 BOTTOM OF VIRTUAL BANDS - BAND     17; K    1; EIG  2.3793341E-01 AU
 TTTTTTTTTTTTTTTTTTTTTTTTTTTTTT PDIG        TELAPSE        6.61 TCPU        6.61
 CHARGE NORMALIZATION FACTOR   1.00000000
 TOTAL ATOMIC CHARGES:
   4.8222476   8.7364670   7.7166591   7.7166591   0.7328016   0.7328016
   0.7711820   0.7711820
 TTTTTTTTTTTTTTTTTTTTTTTTTTTTTT MOQGAD      TELAPSE        6.62 TCPU        6.62
 TTTTTTTTTTTTTTTTTTTTTTTTTTTTTT SHELLX      TELAPSE        7.56 TCPU        7.55
 TTTTTTTTTTTTTTTTTTTTTTTTTTTTTT MONMO3      TELAPSE        7.56 TCPU        7.55
 CYC   7 ETOT(AU) -2.237875558287E+02 DETOT -4.15E-05 tst  2.79E-06 PX  1.88E-03
 TTTTTTTTTTTTTTTTTTTTTTTTTTTTTT FDIK        TELAPSE        7.56 TCPU        7.55
 INSULATING STATE
 TOP OF VALENCE BANDS -    BAND     16; K    1; EIG -3.6720105E-01 AU
 BOTTOM OF VIRTUAL BANDS - BAND     17; K    1; EIG  2.3826809E-01 AU
 TTTTTTTTTTTTTTTTTTTTTTTTTTTTTT PDIG        TELAPSE        7.56 TCPU        7.55
 CHARGE NORMALIZATION FACTOR   1.00000000
 TOTAL ATOMIC CHARGES:
   4.8214886   8.7359719   7.7163809   7.7163809   0.7332676   0.7332676
   0.7716212   0.7716212
 TTTTTTTTTTTTTTTTTTTTTTTTTTTTTT MOQGAD      TELAPSE        7.57 TCPU        7.56
 TTTTTTTTTTTTTTTTTTTTTTTTTTTTTT SHELLX      TELAPSE        8.50 TCPU        8.50
 TTTTTTTTTTTTTTTTTTTTTTTTTTTTTT MONMO3      TELAPSE        8.51 TCPU        8.50
 CYC   8 ETOT(AU) -2.237875715184E+02 DETOT -1.57E-05 tst  1.36E-06 PX  1.21E-03
 TTTTTTTTTTTTTTTTTTTTTTTTTTTTTT FDIK        TELAPSE        8.51 TCPU        8.50
 INSULATING STATE
 TOP OF VALENCE BANDS -    BAND     16; K    1; EIG -3.6725550E-01 AU
 BOTTOM OF VIRTUAL BANDS - BAND     17; K    1; EIG  2.3843358E-01 AU
 TTTTTTTTTTTTTTTTTTTTTTTTTTTTTT PDIG        TELAPSE        8.51 TCPU        8.50
 CHARGE NORMALIZATION FACTOR   1.00000000
 TOTAL ATOMIC CHARGES:
   4.8210917   8.7357085   7.7161913   7.7161913   0.7335551   0.7335551
   0.7718535   0.7718535
 TTTTTTTTTTTTTTTTTTTTTTTTTTTTTT MOQGAD      TELAPSE        8.51 TCPU        8.50
 TTTTTTTTTTTTTTTTTTTTTTTTTTTTTT SHELLX      TELAPSE        9.45 TCPU        9.44
 TTTTTTTTTTTTTTTTTTTTTTTTTTTTTT MONMO3      TELAPSE        9.45 TCPU        9.44
 CYC   9 ETOT(AU) -2.237875779156E+02 DETOT -6.40E-06 tst  6.01E-07 PX  8.01E-04
 TTTTTTTTTTTTTTTTTTTTTTTTTTTTTT FDIK        TELAPSE        9.46 TCPU        9.45
 INSULATING STATE
 TOP OF VALENCE BANDS -    BAND     16; K    1; EIG -3.6726463E-01 AU
 BOTTOM OF VIRTUAL BANDS - BAND     17; K    1; EIG  2.3851731E-01 AU
 TTTTTTTTTTTTTTTTTTTTTTTTTTTTTT PDIG        TELAPSE        9.46 TCPU        9.45
 CHARGE NORMALIZATION FACTOR   1.00000000
 TOTAL ATOMIC CHARGES:
   4.8209284   8.7355167   7.7160716   7.7160716   0.7337281   0.7337281
   0.7719777   0.7719777
 TTTTTTTTTTTTTTTTTTTTTTTTTTTTTT MOQGAD      TELAPSE        9.46 TCPU        9.45
 TTTTTTTTTTTTTTTTTTTTTTTTTTTTTT SHELLX      TELAPSE       10.40 TCPU       10.39
 TTTTTTTTTTTTTTTTTTTTTTTTTTTTTT MONMO3      TELAPSE       10.40 TCPU       10.39
 CYC  10 ETOT(AU) -2.237875806918E+02 DETOT -2.78E-06 tst  2.80E-07 PX  5.22E-04
 TTTTTTTTTTTTTTTTTTTTTTTTTTTTTT FDIK        TELAPSE       10.40 TCPU       10.39
 INSULATING STATE
 TOP OF VALENCE BANDS -    BAND     16; K    1; EIG -3.6725939E-01 AU
 BOTTOM OF VIRTUAL BANDS - BAND     17; K    1; EIG  2.3856282E-01 AU
 TTTTTTTTTTTTTTTTTTTTTTTTTTTTTT PDIG        TELAPSE       10.40 TCPU       10.39
 CHARGE NORMALIZATION FACTOR   1.00000000
 TOTAL ATOMIC CHARGES:
   4.8208529   8.7353896   7.7159979   7.7159979   0.7338359   0.7338359
   0.7720449   0.7720449
 TTTTTTTTTTTTTTTTTTTTTTTTTTTTTT MOQGAD      TELAPSE       10.41 TCPU       10.40
 TTTTTTTTTTTTTTTTTTTTTTTTTTTTTT SHELLX      TELAPSE       11.34 TCPU       11.34
 TTTTTTTTTTTTTTTTTTTTTTTTTTTTTT MONMO3      TELAPSE       11.35 TCPU       11.34
 CYC  11 ETOT(AU) -2.237875819272E+02 DETOT -1.24E-06 tst  1.30E-07 PX  3.52E-04
 TTTTTTTTTTTTTTTTTTTTTTTTTTTTTT FDIK        TELAPSE       11.35 TCPU       11.34
 INSULATING STATE
 TOP OF VALENCE BANDS -    BAND     16; K    1; EIG -3.6724940E-01 AU
 BOTTOM OF VIRTUAL BANDS - BAND     17; K    1; EIG  2.3858880E-01 AU
 TTTTTTTTTTTTTTTTTTTTTTTTTTTTTT PDIG        TELAPSE       11.35 TCPU       11.34
 CHARGE NORMALIZATION FACTOR   1.00000000
 TOTAL ATOMIC CHARGES:
   4.8208225   8.7353022   7.7159533   7.7159533   0.7339039   0.7339039
   0.7720805   0.7720805
 TTTTTTTTTTTTTTTTTTTTTTTTTTTTTT MOQGAD      TELAPSE       11.35 TCPU       11.35
 TTTTTTTTTTTTTTTTTTTTTTTTTTTTTT SHELLX      TELAPSE       12.29 TCPU       12.28
 TTTTTTTTTTTTTTTTTTTTTTTTTTTTTT MONMO3      TELAPSE       12.29 TCPU       12.29
 CYC  12 ETOT(AU) -2.237875825009E+02 DETOT -5.74E-07 tst  6.11E-08 PX  2.38E-04
 TTTTTTTTTTTTTTTTTTTTTTTTTTTTTT FDIK        TELAPSE       12.30 TCPU       12.29
 INSULATING STATE
 TOP OF VALENCE BANDS -    BAND     16; K    1; EIG -3.6723917E-01 AU
 BOTTOM OF VIRTUAL BANDS - BAND     17; K    1; EIG  2.3860434E-01 AU
 TTTTTTTTTTTTTTTTTTTTTTTTTTTTTT PDIG        TELAPSE       12.30 TCPU       12.29
 CHARGE NORMALIZATION FACTOR   1.00000000
 TOTAL ATOMIC CHARGES:
   4.8208092   8.7352439   7.7159264   7.7159264   0.7339473   0.7339473
   0.7720998   0.7720998
 TTTTTTTTTTTTTTTTTTTTTTTTTTTTTT MOQGAD      TELAPSE       12.30 TCPU       12.30
 TTTTTTTTTTTTTTTTTTTTTTTTTTTTTT SHELLX      TELAPSE       13.24 TCPU       13.23
 TTTTTTTTTTTTTTTTTTTTTTTTTTTTTT MONMO3      TELAPSE       13.24 TCPU       13.24
 CYC  13 ETOT(AU) -2.237875827714E+02 DETOT -2.70E-07 tst  2.88E-08 PX  1.61E-04
 TTTTTTTTTTTTTTTTTTTTTTTTTTTTTT FDIK        TELAPSE       13.24 TCPU       13.24
 INSULATING STATE
 TOP OF VALENCE BANDS -    BAND     16; K    1; EIG -3.6723028E-01 AU
 BOTTOM OF VIRTUAL BANDS - BAND     17; K    1; EIG  2.3861397E-01 AU
 TTTTTTTTTTTTTTTTTTTTTTTTTTTTTT PDIG        TELAPSE       13.24 TCPU       13.24
 CHARGE NORMALIZATION FACTOR   1.00000000
 TOTAL ATOMIC CHARGES:
   4.8208039   8.7352039   7.7159107   7.7159107   0.7339752   0.7339752
   0.7721102   0.7721102
 TTTTTTTTTTTTTTTTTTTTTTTTTTTTTT MOQGAD      TELAPSE       13.25 TCPU       13.24
 TTTTTTTTTTTTTTTTTTTTTTTTTTTTTT SHELLX      TELAPSE       14.18 TCPU       14.18
 TTTTTTTTTTTTTTTTTTTTTTTTTTTTTT MONMO3      TELAPSE       14.19 TCPU       14.18
 CYC  14 ETOT(AU) -2.237875829018E+02 DETOT -1.30E-07 tst  1.36E-08 PX  1.09E-04
 TTTTTTTTTTTTTTTTTTTTTTTTTTTTTT FDIK        TELAPSE       14.19 TCPU       14.18
 INSULATING STATE
 TOP OF VALENCE BANDS -    BAND     16; K    1; EIG -3.6722306E-01 AU
 BOTTOM OF VIRTUAL BANDS - BAND     17; K    1; EIG  2.3862011E-01 AU
 TTTTTTTTTTTTTTTTTTTTTTTTTTTTTT PDIG        TELAPSE       14.19 TCPU       14.18
 CHARGE NORMALIZATION FACTOR   1.00000000
 TOTAL ATOMIC CHARGES:
   4.8208035   8.7351764   7.7159015   7.7159015   0.7339929   0.7339929
   0.7721156   0.7721156
 TTTTTTTTTTTTTTTTTTTTTTTTTTTTTT MOQGAD      TELAPSE       14.20 TCPU       14.19
 TTTTTTTTTTTTTTTTTTTTTTTTTTTTTT SHELLX      TELAPSE       15.13 TCPU       15.12
 TTTTTTTTTTTTTTTTTTTTTTTTTTTTTT MONMO3      TELAPSE       15.14 TCPU       15.13
 CYC  15 ETOT(AU) -2.237875829633E+02 DETOT -6.15E-08 tst  6.45E-09 PX  7.37E-05
 TTTTTTTTTTTTTTTTTTTTTTTTTTTTTT FDIK        TELAPSE       15.14 TCPU       15.13
 INSULATING STATE
 TOP OF VALENCE BANDS -    BAND     16; K    1; EIG -3.6721747E-01 AU
 BOTTOM OF VIRTUAL BANDS - BAND     17; K    1; EIG  2.3862411E-01 AU
 TTTTTTTTTTTTTTTTTTTTTTTTTTTTTT PDIG        TELAPSE       15.14 TCPU       15.13
 CHARGE NORMALIZATION FACTOR   1.00000000
 TOTAL ATOMIC CHARGES:
   4.8208022   8.7351579   7.7158956   7.7158956   0.7340055   0.7340055
   0.7721189   0.7721189
 TTTTTTTTTTTTTTTTTTTTTTTTTTTTTT MOQGAD      TELAPSE       15.14 TCPU       15.14
 TTTTTTTTTTTTTTTTTTTTTTTTTTTTTT SHELLX      TELAPSE       16.08 TCPU       16.07

 ::: DIPOLE MOMENT ALONG NON PERIODIC DIRECTIONS:
 ::: A.U.     (X)  0.00000E+00   (Y)  0.00000E+00   (Z)  1.84656E+00
 ::: DEBYE         0.00000E+00        0.00000E+00       -4.69348E+00

 +++ ENERGIES IN A.U. +++
 ::: EXT EL-POLE                                   9.4036514330572E+00
 ::: EXT EL-SPHEROPOLE                             0.0000000000000E+00
 ::: BIELET ZONE E-E                               1.9465079407825E+02
 ::: TOTAL E-E                                     2.0405444551131E+02
 ::: TOTAL E-N + N-E                              -7.7543625564193E+02
 ::: TOTAL N-N                                     1.2409421422847E+02
 ::: KINETIC ENERGY                                2.2350001290543E+02
 ::: TOTAL   ENERGY                               -2.2378758299673E+02
 ::: VIRIAL COEFFICIENT                            9.9935708011148E-01
 TTTTTTTTTTTTTTTTTTTTTTTTTTTTTT MONMO3      TELAPSE       16.08 TCPU       16.08
 CYC  16 ETOT(AU) -2.237875829967E+02 DETOT -3.34E-08 tst  3.06E-09 PX  7.37E-05

 == SCF ENDED - CONVERGENCE ON ENERGY      E(AU) -2.2378758299673E+02 CYCLES  16

 TOTAL ENERGY(HF)(AU)(  16) -2.2378758299673E+02 DE-3.3E-08 tst 3.1E-09 PX 7.4E-05
 EIGENVECTORS IN FORTRAN UNIT  8
 TTTTTTTTTTTTTTTTTTTTTTTTTTTTTT END         TELAPSE       16.09 TCPU       16.09
 EEEEEEEEEE TERMINATION  DATE 30 08 2013 TIME 09:06:14.9
