
         
 *******************************************************************************
 *                                                                             *
 *                                CRYSTAL99                                    *
 *                              develop : 1.0                                  *
 *                      Jan 4th, 2011 - sequential executable                  *
 *                                                                             *
 *                                                                             *
 *                                                                             *
 *                              MAIN AUTHORS                                   *
 *                                                                             *
 *    R. DOVESI(1,10), V.R. SAUNDERS(2), C. ROETTI(1,10), R. ORLANDO (1,3),    *
 *  C.M. ZICOVICH-WILSON(1,4), F. PASCALE(5), B. CIVALLERI(1,10), K. DOLL(6),  *
 *       N.M. HARRISON(2,7), I. J. BUSH(2), Ph. D'ARCO(8), M. LLUNELL(9)       *
 *                                                                             *
 * (1) THEORETICAL CHEMISTRY GROUP - UNIVERSITA' DI TORINO - TORINO (ITALY)    *
 *      http://www.crystal.unito.it                                            *
 * (2) COMPUTATIONAL SCIENCE & ENGINEERING DEPARTMENT - CCLRC DARESBURY (UK)   *
 *     http://www.cse.clrc.ac.uk/cmg/CRYSTAL/                                  *
 * (3) UNIVERSITA' DEL PIEMONTE ORIENTALE - ALESSANDRIA (ITALY)                *
 * (4) UNIVERSIDAD AUTONOMA DEL ESTADO DE MORELOS - CUERNAVACA (MEXICO)        *
 * (5) UNIVERSITE' HENRI POINCARE' - NANCY (FRANCE)                            *
 * (6) MPI FUER FESTKOERPERFORSCHUNG - STUTTGART (GERMANY)                     *
 * (7) IMPERIAL COLLEGE - LONDON (UK)                                          *
 * (8) UNIVERSITE' PIERRE ET MARIE CURIE - PARIS (FRANCE)                      *
 * (9) UNIVERSIDAD DE BARCELONA - BARCELONA (SPAIN)                            *
 *(10) NIS - NANOSTRUCTURED INTERFACES AND SURFACES - TORINO (ITALY)           *
 *     http://www.crystal.unito.it                                             *
 *******************************************************************************
 EEEEEEEEEE STARTING  DATE 30 08 2013 TIME 09:38:19.7
 TEST12 - UREA BULK BASE 6-21 + POLARIZATION                                     

 CRYSTAL CALCULATION
 (INPUT ACCORDING TO THE INTERNATIONAL TABLES FOR X-RAY CRYSTALLOGRAPHY)
 CRYSTAL FAMILY                       :  TETRAGONAL  
 CRYSTAL CLASS  (GROTH - 1921)        :  TETRAGONAL SCALENOHEDRAL             

 SPACE GROUP (NONCENTROSYMMETRIC)     :  P -4 21 M       

 LATTICE PARAMETERS  (ANGSTROMS AND DEGREES) - CONVENTIONAL CELL
        A           B           C        ALPHA        BETA       GAMMA
     5.56500     5.56500     4.68400    90.00000    90.00000    90.00000


 NUMBER OF IRREDUCIBLE ATOMS IN THE CONVENTIONAL CELL:    5

 INPUT COORDINATES

 ATOM AT. N.              COORDINATES
   1   6     0.000000000000E+00  5.000000000000E-01  3.260000000000E-01
   2   8     0.000000000000E+00  5.000000000000E-01  5.953000000000E-01
   3   7     1.459000000000E-01  6.459000000000E-01  1.766000000000E-01
   4   1     2.575000000000E-01  7.575000000000E-01  2.827000000000E-01
   5   1     1.441000000000E-01  6.441000000000E-01 -3.800000000000E-02

 *******************************************************************************

 << INFORMATION >>: FROM NOW ON, ALL COORDINATES REFER TO THE PRIMITIVE CELL

 *******************************************************************************

 LATTICE PARAMETERS  (ANGSTROMS AND DEGREES) - PRIMITIVE CELL
       A          B          C         ALPHA     BETA     GAMMA        VOLUME
    5.56500    5.56500    4.68400    90.00000  90.00000  90.00000    145.059850

 COORDINATES OF THE EQUIVALENT ATOMS (FRACTIONAL UNITS)

 N. ATOM EQUIV AT. N.          X                  Y                  Z

   1   1   1    6 C     0.00000000000E+00 -5.00000000000E-01  3.26000000000E-01
   2   1   2    6 C    -5.00000000000E-01  0.00000000000E+00 -3.26000000000E-01

   3   2   1    8 O     0.00000000000E+00 -5.00000000000E-01 -4.04700000000E-01
   4   2   2    8 O    -5.00000000000E-01  0.00000000000E+00  4.04700000000E-01

   5   3   1    7 N     1.45900000000E-01 -3.54100000000E-01  1.76600000000E-01
   6   3   2    7 N    -1.45900000000E-01  3.54100000000E-01  1.76600000000E-01
   7   3   3    7 N    -3.54100000000E-01 -1.45900000000E-01 -1.76600000000E-01
   8   3   4    7 N     3.54100000000E-01  1.45900000000E-01 -1.76600000000E-01

   9   4   1    1 H     2.57500000000E-01 -2.42500000000E-01  2.82700000000E-01
  10   4   2    1 H    -2.57500000000E-01  2.42500000000E-01  2.82700000000E-01
  11   4   3    1 H    -2.42500000000E-01 -2.57500000000E-01 -2.82700000000E-01
  12   4   4    1 H     2.42500000000E-01  2.57500000000E-01 -2.82700000000E-01

  13   5   1    1 H     1.44100000000E-01 -3.55900000000E-01 -3.80000000000E-02
  14   5   2    1 H    -1.44100000000E-01  3.55900000000E-01 -3.80000000000E-02
  15   5   3    1 H    -3.55900000000E-01 -1.44100000000E-01  3.80000000000E-02
  16   5   4    1 H     3.55900000000E-01  1.44100000000E-01  3.80000000000E-02

 NUMBER OF SYMMETRY OPERATORS         :    8
 *******************************************************************************
 * GEOMETRY EDITING - INPUT COORDINATES ARE GIVEN IN ANGSTROM         
 *******************************************************************************

 GEOMETRY NOW FULLY CONSISTENT WITH THE GROUP

 GCALCO - MAX INDICES DIRECT LATTICE VECTOR    14    14    16
 NO.OF VECTORS CREATED 6999 STARS  525 RMAX   117.81283 BOHR

 GEOMETRY FOR WAVE FUNCTION - DIMENSIONALITY OF THE SYSTEM    3
 (NON PERIODIC DIRECTION: LATTICE PARAMETER FORMALLY SET TO 500)
 *******************************************************************************
 LATTICE PARAMETERS (ANGSTROMS AND DEGREES) - BOHR = 0.5291772083 ANGSTROM
 PRIMITIVE CELL - CENTRING CODE 1/0 VOLUME=   145.059850 - DENSITY  1.374 g/cm^3
         A              B              C           ALPHA      BETA       GAMMA 
     5.56500000     5.56500000     4.68400000    90.000000  90.000000  90.000000
 *******************************************************************************
 ATOMS IN THE ASYMMETRIC UNIT    5 - ATOMS IN THE UNIT CELL:   16
     ATOM              X/A                 Y/B                 Z/C    
 *******************************************************************************
   1 T   6 C     0.000000000000E+00  5.000000000000E-01  3.260000000000E-01
   2 F   6 C    -5.000000000000E-01  0.000000000000E+00 -3.260000000000E-01
   3 T   8 O     0.000000000000E+00  5.000000000000E-01 -4.047000000000E-01
   4 F   8 O    -5.000000000000E-01  0.000000000000E+00  4.047000000000E-01
   5 T   7 N     1.459000000000E-01 -3.541000000000E-01  1.766000000000E-01
   6 F   7 N    -1.459000000000E-01  3.541000000000E-01  1.766000000000E-01
   7 F   7 N    -3.541000000000E-01 -1.459000000000E-01 -1.766000000000E-01
   8 F   7 N     3.541000000000E-01  1.459000000000E-01 -1.766000000000E-01
   9 T   1 H     2.575000000000E-01 -2.425000000000E-01  2.827000000000E-01
  10 F   1 H    -2.575000000000E-01  2.425000000000E-01  2.827000000000E-01
  11 F   1 H    -2.425000000000E-01 -2.575000000000E-01 -2.827000000000E-01
  12 F   1 H     2.425000000000E-01  2.575000000000E-01 -2.827000000000E-01
  13 T   1 H     1.441000000000E-01 -3.559000000000E-01 -3.800000000000E-02
  14 F   1 H    -1.441000000000E-01  3.559000000000E-01 -3.800000000000E-02
  15 F   1 H    -3.559000000000E-01 -1.441000000000E-01  3.800000000000E-02
  16 F   1 H     3.559000000000E-01  1.441000000000E-01  3.800000000000E-02

 T = ATOM BELONGING TO THE ASYMMETRIC UNIT

 ****   8 SYMMOPS - TRANSLATORS IN FRACTIONAL UNITS
 **** MATRICES AND TRANSLATORS IN THE CRYSTALLOGRAPHIC REFERENCE FRAME
  V INV                   ROTATION MATRICES                       TRANSLATOR
  1  1  1.00  0.00  0.00  0.00  1.00  0.00  0.00  0.00  1.00    0.00  0.00  0.00
  2  2 -1.00  0.00  0.00  0.00 -1.00  0.00  0.00  0.00  1.00    0.00  0.00  0.00
  3  3  1.00  0.00  0.00  0.00 -1.00  0.00  0.00  0.00 -1.00    0.50  0.50  0.00
  4  4 -1.00  0.00  0.00  0.00  1.00  0.00  0.00  0.00 -1.00    0.50  0.50  0.00
  5  5  0.00  1.00  0.00  1.00  0.00  0.00  0.00  0.00  1.00    0.50  0.50  0.00
  6  6  0.00 -1.00  0.00 -1.00  0.00  0.00  0.00  0.00  1.00    0.50  0.50  0.00
  7  8  0.00 -1.00  0.00  1.00  0.00  0.00  0.00  0.00 -1.00    0.00  0.00  0.00
  8  7  0.00  1.00  0.00 -1.00  0.00  0.00  0.00  0.00 -1.00    0.00  0.00  0.00

 DIRECT LATTICE VECTORS CARTESIAN COMPONENTS (ANGSTROM)
          X                    Y                    Z
   0.556500000000E+01   0.000000000000E+00   0.000000000000E+00
   0.000000000000E+00   0.556500000000E+01   0.000000000000E+00
   0.000000000000E+00   0.000000000000E+00   0.468400000000E+01


 CARTESIAN COORDINATES - PRIMITIVE CELL
 *******************************************************************************
 *      ATOM          X(ANGSTROM)         Y(ANGSTROM)         Z(ANGSTROM)
 *******************************************************************************
    1     6 C     0.000000000000E+00  2.782500000000E+00  1.526984000000E+00
    2     6 C     2.782500000000E+00  0.000000000000E+00 -1.526984000000E+00
    3     8 O     0.000000000000E+00  2.782500000000E+00 -1.895614800000E+00
    4     8 O     2.782500000000E+00  0.000000000000E+00  1.895614800000E+00
    5     7 N     8.119335000000E-01 -1.970566500000E+00  8.271944000000E-01
    6     7 N    -8.119335000000E-01  1.970566500000E+00  8.271944000000E-01
    7     7 N    -1.970566500000E+00 -8.119335000000E-01 -8.271944000000E-01
    8     7 N     1.970566500000E+00  8.119335000000E-01 -8.271944000000E-01
    9     1 H     1.432987500000E+00 -1.349512500000E+00  1.324166800000E+00
   10     1 H    -1.432987500000E+00  1.349512500000E+00  1.324166800000E+00
   11     1 H    -1.349512500000E+00 -1.432987500000E+00 -1.324166800000E+00
   12     1 H     1.349512500000E+00  1.432987500000E+00 -1.324166800000E+00
   13     1 H     8.019165000000E-01 -1.980583500000E+00 -1.779920000000E-01
   14     1 H    -8.019165000000E-01  1.980583500000E+00 -1.779920000000E-01
   15     1 H    -1.980583500000E+00 -8.019165000000E-01  1.779920000000E-01
   16     1 H     1.980583500000E+00  8.019165000000E-01  1.779920000000E-01

 *******************************************************************************
 LOCAL ATOMIC FUNCTIONS BASIS SET
 *******************************************************************************
   ATOM  X(AU)  Y(AU)  Z(AU)    NO. TYPE  EXPONENT  S COEF   P COEF   D/F/G COEF
 *******************************************************************************
   1 C           0.000          5.258          2.886
                                  1 S  
                                         3.048E+03 1.826E-03 0.000E+00 0.000E+00
                                         4.564E+02 1.406E-02 0.000E+00 0.000E+00
                                         1.037E+02 6.876E-02 0.000E+00 0.000E+00
                                         2.923E+01 2.304E-01 0.000E+00 0.000E+00
                                         9.349E+00 4.685E-01 0.000E+00 0.000E+00
                                         3.189E+00 3.628E-01 0.000E+00 0.000E+00
                             2-   5 SP 
                                         3.665E+00-3.959E-01 2.365E-01 0.000E+00
                                         7.705E-01 1.216E+00 8.606E-01 0.000E+00
                             6-   9 SP 
                                         1.959E-01 1.000E+00 1.000E+00 0.000E+00
                            10-  14 D  
                                         8.000E-01 0.000E+00 0.000E+00 1.000E+00
   2 C           5.258          0.000         -2.886
   3 O           0.000          5.258         -3.582
                                 29 S  
                                         5.472E+03 1.832E-03 0.000E+00 0.000E+00
                                         8.178E+02 1.410E-02 0.000E+00 0.000E+00
                                         1.864E+02 6.863E-02 0.000E+00 0.000E+00
                                         5.302E+01 2.294E-01 0.000E+00 0.000E+00
                                         1.718E+01 4.664E-01 0.000E+00 0.000E+00
                                         5.912E+00 3.642E-01 0.000E+00 0.000E+00
                            30-  33 SP 
                                         7.403E+00-4.045E-01 2.446E-01 0.000E+00
                                         1.576E+00 1.222E+00 8.540E-01 0.000E+00
                            34-  37 SP 
                                         3.737E-01 1.000E+00 1.000E+00 0.000E+00
                            38-  42 D  
                                         8.000E-01 0.000E+00 0.000E+00 1.000E+00
   4 O           5.258          0.000          3.582
   5 N           1.534         -3.724          1.563
                                 57 S  
                                         4.150E+03 1.845E-03 0.000E+00 0.000E+00
                                         6.201E+02 1.416E-02 0.000E+00 0.000E+00
                                         1.417E+02 6.863E-02 0.000E+00 0.000E+00
                                         4.034E+01 2.286E-01 0.000E+00 0.000E+00
                                         1.303E+01 4.662E-01 0.000E+00 0.000E+00
                                         4.470E+00 3.657E-01 0.000E+00 0.000E+00
                            58-  61 SP 
                                         5.425E+00-4.133E-01 2.380E-01 0.000E+00
                                         1.149E+00 1.224E+00 8.590E-01 0.000E+00
                            62-  65 SP 
                                         2.832E-01 1.000E+00 1.000E+00 0.000E+00
                            66-  70 D  
                                         8.000E-01 0.000E+00 0.000E+00 1.000E+00
   6 N          -1.534          3.724          1.563
   7 N          -3.724         -1.534         -1.563
   8 N           3.724          1.534         -1.563
   9 H           2.708         -2.550          2.502
                                113 S  
                                         5.447E+00 1.563E-01 0.000E+00 0.000E+00
                                         8.245E-01 9.047E-01 0.000E+00 0.000E+00
                                114 S  
                                         1.832E-01 1.000E+00 0.000E+00 0.000E+00
                           115- 117 P  
                                         1.100E+00 0.000E+00 1.000E+00 0.000E+00
  10 H          -2.708          2.550          2.502
  11 H          -2.550         -2.708         -2.502
  12 H           2.550          2.708         -2.502
  13 H           1.515         -3.743         -0.336
  14 H          -1.515          3.743         -0.336
  15 H          -3.743         -1.515          0.336
  16 H           3.743          1.515          0.336
 INFORMATION **** READM2 **** NEW DEFAULT: FOCK/KS MATRIX MIXING SET TO 30 %
 INFORMATION **** READM2 **** NEW DEFAULT: FULL DIRECT SCF MODE
 INFORMATION **** READM2 **** NEW DEFAULT: COULOMB BIPOLAR BUFFER SET TO 32 Mb
 INFORMATION **** READM2 **** NEW DEFAULT: EXCHANGE BIPOLAR BUFFER SET TO 32 Mb
 INFORMATION **** READM2 **** NEW DEFAULT: INTEGRAL TOLERANCES SET TO 7 7 7 7 14
 INFORMATION **** TOLDEE **** SCF TOL ON TOTAL ENERGY SET TO           7
 *******************************************************************************
 N. OF ATOMS PER CELL       16  COULOMB OVERLAP TOL         (T1) 10**   -7
 NUMBER OF SHELLS           56  COULOMB PENETRATION TOL     (T2) 10**   -7
 NUMBER OF AO              152  EXCHANGE OVERLAP TOL        (T3) 10**   -7
 N. OF ELECTRONS PER CELL   64  EXCHANGE PSEUDO OVP (F(G))  (T4) 10**   -7
 CORE ELECTRONS PER CELL    16  EXCHANGE PSEUDO OVP (P(G))  (T5) 10**  -14
 N. OF SYMMETRY OPERATORS    8  POLE ORDER IN MONO ZONE                4
 *******************************************************************************
 TYPE OF CALCULATION :  RESTRICTED CLOSED SHELL
 HARTREE-FOCK HAMILTONIAN

 CAPPA:IS1  2;IS2  2;IS3  2; K PTS MONK NET    6; SYMMOPS: K SPACE 16;G SPACE  8

 *******************************************************************************
 MAX NUMBER OF SCF CYCLES      50  CONVERGENCE ON DELTAP        10**-17
 WEIGHT OF F(I) IN F(I+1)      30% CONVERGENCE ON ENERGY        10**- 7
 SHRINK. FACT.(MONKH.)    2  2  2  NUMBER OF K POINTS IN THE IBZ      6
 SHRINKING FACTOR(GILAT NET)    2  NUMBER OF K POINTS(GILAT NET)      6
 *******************************************************************************
 *** K POINTS COORDINATES (OBLIQUE COORDINATES IN UNITS OF IS =  2)
   1-R(  0  0  0)   2-R(  1  0  0)   3-R(  1  1  0)   4-R(  0  0  1)
   5-R(  1  0  1)   6-R(  1  1  1)

 DIRECT LATTICE VECTORS COMPON. (A.U.)     RECIP. LATTICE VECTORS COMPON. (A.U.) 
        X            Y            Z              X            Y            Z
   10.5163259    0.0000000    0.0000000      0.5974696    0.0000000    0.0000000
    0.0000000   10.5163259    0.0000000      0.0000000    0.5974696    0.0000000
    0.0000000    0.0000000    8.8514772      0.0000000    0.0000000    0.7098460

 DISK SPACE FOR EIGENVECTORS (FTN 10)     138624 REALS

 SYMMETRY ADAPTION OF THE BLOCH FUNCTIONS ENABLED

 MATRIX SIZE: P(G)  140500, F(G)   24150, P(G) IRR   13839, F(G) IRR    5344
 MAX G-VECTOR INDEX FOR 1- AND 2-ELECTRON INTEGRALS  89

 TTTTTTTTTTTTTTTTTTTTTTTTTTTTTT INPUT       TELAPSE        0.01 TCPU        0.01

 NEIGHBORS OF THE NON-EQUIVALENT ATOMS

 N = NUMBER OF NEIGHBORS AT DISTANCE R
    ATOM  N     R/ANG      R/AU   NEIGHBORS (ATOM LABELS AND CELL INDICES)
   1 C    1     1.2614     2.3837   3 O    0 0 1
   1 C    2     1.3447     2.5411   5 N    0 1 0   6 N    0 0 0
   1 C    2     2.0367     3.8488   9 H    0 1 0  10 H    0 0 0
   1 C    2     2.0477     3.8696  13 H    0 1 0  14 H    0 0 0
   1 C    2     2.6461     5.0004  11 H    0 1 1  12 H    0 0 1
   1 C    2     3.1089     5.8750  15 H    0 1 0  16 H    0 0 0

   3 O    1     1.2614     2.3837   1 C    0 0-1
   3 O    2     1.9922     3.7647  11 H    0 1 0  12 H    0 0 0
   3 O    2     2.0582     3.8895  13 H    0 1 0  14 H    0 0 0
   3 O    2     2.2726     4.2946   5 N    0 1-1   6 N    0 0-1
   3 O    2     2.5002     4.7246   9 H    0 1-1  10 H    0 0-1
   3 O    2     2.9550     5.5842   5 N    0 1 0   6 N    0 0 0

   5 N    1     1.0053     1.8997  13 H    0 0 0
   5 N    1     1.0092     1.9070   9 H    0 0 0
   5 N    1     1.3447     2.5411   1 C    0-1 0
   5 N    1     2.2726     4.2946   3 O    0-1 1
   5 N    1     2.2965     4.3397   6 N    0-1 0
   5 N    1     2.4939     4.7127  14 H    0-1 0

   9 H    1     1.0092     1.9070   5 N    0 0 0
   9 H    1     1.7473     3.3019  13 H    0 0 0
   9 H    1     1.9922     3.7647   4 O    0 0 0
   9 H    1     2.0367     3.8488   1 C    0-1 0
   9 H    2     2.4984     4.7214  15 H    1 0 0  16 H    0 0 0
   9 H    1     2.5002     4.7246   3 O    0-1 1

  13 H    1     1.0053     1.8997   5 N    0 0 0
  13 H    1     1.7473     3.3019   9 H    0 0 0
  13 H    1     2.0477     3.8696   1 C    0-1 0
  13 H    1     2.0582     3.8895   3 O    0-1 0
  13 H    1     2.2682     4.2862  14 H    0-1 0
  13 H    1     2.4939     4.7127   6 N    0-1 0


 SYMMETRY ALLOWED INTERNAL DEGREE(S) OF FREEDOM:   8
 TTTTTTTTTTTTTTTTTTTTTTTTTTTTTT SYMM        TELAPSE        0.01 TCPU        0.01
 TTTTTTTTTTTTTTTTTTTTTTTTTTTTTT INT_SCREEN  TELAPSE        0.01 TCPU        0.02
 INFORMATION **** EXCBUF **** EXCH. BIPO BUFFER: WORDS USED =      413802
 TTTTTTTTTTTTTTTTTTTTTTTTTTTTTT INT_CALC    TELAPSE        0.07 TCPU        0.07
 EEEEEEEEEE INT_CALC TERMINATION  DATE 30 08 2013 TIME 09:38:19.8

 *******************************************************************************
 TEST12 - UREA BULK BASE 6-21 + POLARIZATION                                     
 CRYSTAL - SCF - TYPE OF CALCULATION :  RESTRICTED CLOSED SHELL
 *******************************************************************************

 CAPPA:IS1  2;IS2  2;IS3  2; K PTS MONK NET    6; SYMMOPS: K SPACE 16;G SPACE  8

 TTTTTTTTTTTTTTTTTTTTTTTTTTTTTT SDIK        TELAPSE        0.08 TCPU        0.08

 AAAAAAAAAAAAAAAAAAAAAAAAAAAAAAAAAAAAAAAAAAAAAAAAAAAAAAAAAAAAAAAAAAAAAAAAAAAAAAA
         ATOMIC WAVEFUNCTION(S)


 NUCLEAR CHARGE  6.0  SYMMETRY SPECIES            S    P
 N. ELECTRONS    6.0  NUMBER OF PRIMITIVE GTOS    9    3
                      NUMBER OF CONTRACTED GTOS   3    2
                      NUMBER OF CLOSED SHELLS     2    0
                      OPEN SHELL OCCUPATION       0    2

  ZNUC SCFIT  TOTAL HF ENERGY   KINETIC ENERGY   VIRIAL THEOREM ACCURACY
   6.0   9   -3.765831823E+01  3.765320062E+01 -2.000135914E+00  1.5E-06

 NUCLEAR CHARGE  8.0  SYMMETRY SPECIES            S    P
 N. ELECTRONS    8.0  NUMBER OF PRIMITIVE GTOS    9    3
                      NUMBER OF CONTRACTED GTOS   3    2
                      NUMBER OF CLOSED SHELLS     2    0
                      OPEN SHELL OCCUPATION       0    4

  ZNUC SCFIT  TOTAL HF ENERGY   KINETIC ENERGY   VIRIAL THEOREM ACCURACY
   8.0  10   -7.469910437E+01  7.469021188E+01 -2.000119058E+00  4.4E-06

 NUCLEAR CHARGE  7.0  SYMMETRY SPECIES            S    P
 N. ELECTRONS    7.0  NUMBER OF PRIMITIVE GTOS    9    3
                      NUMBER OF CONTRACTED GTOS   3    2
                      NUMBER OF CLOSED SHELLS     2    0
                      OPEN SHELL OCCUPATION       0    3

  ZNUC SCFIT  TOTAL HF ENERGY   KINETIC ENERGY   VIRIAL THEOREM ACCURACY
   7.0   8   -5.434075198E+01  5.432977783E+01 -2.000201992E+00  3.0E-06

 NUCLEAR CHARGE  1.0  SYMMETRY SPECIES            S
 N. ELECTRONS    1.0  NUMBER OF PRIMITIVE GTOS    3
                      NUMBER OF CONTRACTED GTOS   2
                      NUMBER OF CLOSED SHELLS     0
                      OPEN SHELL OCCUPATION       1

  ZNUC SCFIT  TOTAL HF ENERGY   KINETIC ENERGY   VIRIAL THEOREM ACCURACY
   1.0   1   -4.961986360E-01  5.144743151E-01 -1.964476984E+00  0.0E+00

 AAAAAAAAAAAAAAAAAAAAAAAAAAAAAAAAAAAAAAAAAAAAAAAAAAAAAAAAAAAAAAAAAAAAAAAAAAAAAAA

 CHARGE NORMALIZATION FACTOR   1.00000000
 TOTAL ATOMIC CHARGES:
   6.0000000   6.0000000   8.0000000   8.0000000   7.0000000   7.0000000
   7.0000000   7.0000000   1.0000000   1.0000000   1.0000000   1.0000000
   1.0000000   1.0000000   1.0000000   1.0000000
 TTTTTTTTTTTTTTTTTTTTTTTTTTTTTT MOQGAD      TELAPSE        0.12 TCPU        0.12
 TTTTTTTTTTTTTTTTTTTTTTTTTTTTTT SHELLX      TELAPSE       20.83 TCPU       20.81
 TTTTTTTTTTTTTTTTTTTTTTTTTTTTTT MONMO3      TELAPSE       21.39 TCPU       21.35
 CYC   0 ETOT(AU) -4.500026143031E+02 DETOT -4.50E+02 tst  0.00E+00 PX  1.00E+00
 TTTTTTTTTTTTTTTTTTTTTTTTTTTTTT FDIK        TELAPSE       21.42 TCPU       21.38
 INSULATING STATE
 TOP OF VALENCE BANDS -    BAND     32; K    1; EIG -2.7362606E-01 AU
 BOTTOM OF VIRTUAL BANDS - BAND     33; K    1; EIG  7.8735925E-02 AU
 TTTTTTTTTTTTTTTTTTTTTTTTTTTTTT PDIG        TELAPSE       21.43 TCPU       21.39
 CHARGE NORMALIZATION FACTOR   1.00000000
 TOTAL ATOMIC CHARGES:
   4.6116547   4.6116547   8.9781142   8.9781142   7.7755313   7.7755313
   7.7755313   7.7755313   0.7149484   0.7149484   0.7149484   0.7149484
   0.7146358   0.7146358   0.7146358   0.7146358
 TTTTTTTTTTTTTTTTTTTTTTTTTTTTTT MOQGAD      TELAPSE       21.47 TCPU       21.44
 TTTTTTTTTTTTTTTTTTTTTTTTTTTTTT SHELLX      TELAPSE       43.05 TCPU       43.01
 TTTTTTTTTTTTTTTTTTTTTTTTTTTTTT MONMO3      TELAPSE       43.58 TCPU       43.54
 CYC   1 ETOT(AU) -4.475380231572E+02 DETOT  2.46E+00 tst  0.00E+00 PX  1.00E+00
 TTTTTTTTTTTTTTTTTTTTTTTTTTTTTT FDIK        TELAPSE       43.60 TCPU       43.56
 INSULATING STATE
 TOP OF VALENCE BANDS -    BAND     32; K    1; EIG -3.5466640E-01 AU
 BOTTOM OF VIRTUAL BANDS - BAND     33; K    1; EIG  1.7032348E-01 AU
 TTTTTTTTTTTTTTTTTTTTTTTTTTTTTT PDIG        TELAPSE       43.61 TCPU       43.57
 CHARGE NORMALIZATION FACTOR   1.00000000
 TOTAL ATOMIC CHARGES:
   4.8990354   4.8990354   8.7246033   8.7246033   7.7381021   7.7381021
   7.7381021   7.7381021   0.7254609   0.7254609   0.7254609   0.7254609
   0.7246177   0.7246177   0.7246177   0.7246177
 TTTTTTTTTTTTTTTTTTTTTTTTTTTTTT MOQGAD      TELAPSE       43.66 TCPU       43.61
 TTTTTTTTTTTTTTTTTTTTTTTTTTTTTT SHELLX      TELAPSE       65.23 TCPU       65.17
 TTTTTTTTTTTTTTTTTTTTTTTTTTTTTT MONMO3      TELAPSE       65.76 TCPU       65.71
 CYC   2 ETOT(AU) -4.476648393013E+02 DETOT -1.27E-01 tst  2.90E-03 PX  7.54E-02
 TTTTTTTTTTTTTTTTTTTTTTTTTTTTTT FDIK        TELAPSE       65.78 TCPU       65.72
 INSULATING STATE
 TOP OF VALENCE BANDS -    BAND     32; K    1; EIG -3.7364464E-01 AU
 BOTTOM OF VIRTUAL BANDS - BAND     33; K    1; EIG  1.9197341E-01 AU
 TTTTTTTTTTTTTTTTTTTTTTTTTTTTTT PDIG        TELAPSE       65.79 TCPU       65.74
 CHARGE NORMALIZATION FACTOR   1.00000000
 TOTAL ATOMIC CHARGES:
   4.8235676   4.8235676   8.7846616   8.7846616   7.7405329   7.7405329
   7.7405329   7.7405329   0.7276975   0.7276975   0.7276975   0.7276975
   0.7276550   0.7276550   0.7276550   0.7276550
 TTTTTTTTTTTTTTTTTTTTTTTTTTTTTT MOQGAD      TELAPSE       65.83 TCPU       65.78
 TTTTTTTTTTTTTTTTTTTTTTTTTTTTTT SHELLX      TELAPSE       87.42 TCPU       87.36
 TTTTTTTTTTTTTTTTTTTTTTTTTTTTTT MONMO3      TELAPSE       87.96 TCPU       87.89
 CYC   3 ETOT(AU) -4.476783210575E+02 DETOT -1.35E-02 tst  1.65E-04 PX  2.17E-02
 TTTTTTTTTTTTTTTTTTTTTTTTTTTTTT FDIK        TELAPSE       87.97 TCPU       87.91
 INSULATING STATE
 TOP OF VALENCE BANDS -    BAND     32; K    1; EIG -3.8184442E-01 AU
 BOTTOM OF VIRTUAL BANDS - BAND     33; K    1; EIG  2.0169439E-01 AU
 TTTTTTTTTTTTTTTTTTTTTTTTTTTTTT PDIG        TELAPSE       87.98 TCPU       87.92
 CHARGE NORMALIZATION FACTOR   1.00000000
 TOTAL ATOMIC CHARGES:
   4.8162944   4.8162944   8.7762397   8.7762397   7.7476537   7.7476537
   7.7476537   7.7476537   0.7280377   0.7280377   0.7280377   0.7280377
   0.7280416   0.7280416   0.7280416   0.7280416
 TTTTTTTTTTTTTTTTTTTTTTTTTTTTTT MOQGAD      TELAPSE       88.03 TCPU       87.97
 TTTTTTTTTTTTTTTTTTTTTTTTTTTTTT SHELLX      TELAPSE      109.59 TCPU      109.53
 TTTTTTTTTTTTTTTTTTTTTTTTTTTTTT MONMO3      TELAPSE      110.13 TCPU      110.06
 CYC   4 ETOT(AU) -4.476808311990E+02 DETOT -2.51E-03 tst  3.66E-05 PX  7.97E-03
 TTTTTTTTTTTTTTTTTTTTTTTTTTTTTT FDIK        TELAPSE      110.14 TCPU      110.07
 INSULATING STATE
 TOP OF VALENCE BANDS -    BAND     32; K    1; EIG -3.8330616E-01 AU
 BOTTOM OF VIRTUAL BANDS - BAND     33; K    1; EIG  2.0518795E-01 AU
 TTTTTTTTTTTTTTTTTTTTTTTTTTTTTT PDIG        TELAPSE      110.15 TCPU      110.09
 CHARGE NORMALIZATION FACTOR   1.00000000
 TOTAL ATOMIC CHARGES:
   4.8083743   4.8083743   8.7795947   8.7795947   7.7488662   7.7488662
   7.7488662   7.7488662   0.7285459   0.7285459   0.7285459   0.7285459
   0.7286034   0.7286034   0.7286034   0.7286034
 TTTTTTTTTTTTTTTTTTTTTTTTTTTTTT MOQGAD      TELAPSE      110.20 TCPU      110.13
 TTTTTTTTTTTTTTTTTTTTTTTTTTTTTT SHELLX      TELAPSE      131.77 TCPU      131.69
 TTTTTTTTTTTTTTTTTTTTTTTTTTTTTT MONMO3      TELAPSE      132.30 TCPU      132.22
 CYC   5 ETOT(AU) -4.476814012898E+02 DETOT -5.70E-04 tst  8.78E-06 PX  3.87E-03
 TTTTTTTTTTTTTTTTTTTTTTTTTTTTTT FDIK        TELAPSE      132.32 TCPU      132.24
 INSULATING STATE
 TOP OF VALENCE BANDS -    BAND     32; K    1; EIG -3.8391752E-01 AU
 BOTTOM OF VIRTUAL BANDS - BAND     33; K    1; EIG  2.0665099E-01 AU
 TTTTTTTTTTTTTTTTTTTTTTTTTTTTTT PDIG        TELAPSE      132.33 TCPU      132.25
 CHARGE NORMALIZATION FACTOR   1.00000000
 TOTAL ATOMIC CHARGES:
   4.8055547   4.8055547   8.7796403   8.7796403   7.7497000   7.7497000
   7.7497000   7.7497000   0.7288138   0.7288138   0.7288138   0.7288138
   0.7288886   0.7288886   0.7288886   0.7288886
 TTTTTTTTTTTTTTTTTTTTTTTTTTTTTT MOQGAD      TELAPSE      132.37 TCPU      132.30
 TTTTTTTTTTTTTTTTTTTTTTTTTTTTTT SHELLX      TELAPSE      155.00 TCPU      153.87
 TTTTTTTTTTTTTTTTTTTTTTTTTTTTTT MONMO3      TELAPSE      155.54 TCPU      154.40
 CYC   6 ETOT(AU) -4.476815486464E+02 DETOT -1.47E-04 tst  2.03E-06 PX  1.69E-03
 TTTTTTTTTTTTTTTTTTTTTTTTTTTTTT FDIK        TELAPSE      155.56 TCPU      154.42
 INSULATING STATE
 TOP OF VALENCE BANDS -    BAND     32; K    1; EIG -3.8410713E-01 AU
 BOTTOM OF VIRTUAL BANDS - BAND     33; K    1; EIG  2.0725180E-01 AU
 TTTTTTTTTTTTTTTTTTTTTTTTTTTTTT PDIG        TELAPSE      155.57 TCPU      154.43
 CHARGE NORMALIZATION FACTOR   1.00000000
 TOTAL ATOMIC CHARGES:
   4.8041078   4.8041078   8.7798529   8.7798529   7.7499083   7.7499083
   7.7499083   7.7499083   0.7290161   0.7290161   0.7290161   0.7290161
   0.7290952   0.7290952   0.7290952   0.7290952
 TTTTTTTTTTTTTTTTTTTTTTTTTTTTTT MOQGAD      TELAPSE      155.61 TCPU      154.47
 TTTTTTTTTTTTTTTTTTTTTTTTTTTTTT SHELLX      TELAPSE      177.19 TCPU      176.04
 TTTTTTTTTTTTTTTTTTTTTTTTTTTTTT MONMO3      TELAPSE      177.72 TCPU      176.58
 CYC   7 ETOT(AU) -4.476815912746E+02 DETOT -4.26E-05 tst  6.77E-07 PX  9.14E-04
 TTTTTTTTTTTTTTTTTTTTTTTTTTTTTT FDIK        TELAPSE      177.74 TCPU      176.59
 INSULATING STATE
 TOP OF VALENCE BANDS -    BAND     32; K    1; EIG -3.8421244E-01 AU
 BOTTOM OF VIRTUAL BANDS - BAND     33; K    1; EIG  2.0751507E-01 AU
 TTTTTTTTTTTTTTTTTTTTTTTTTTTTTT PDIG        TELAPSE      177.75 TCPU      176.60
 CHARGE NORMALIZATION FACTOR   1.00000000
 TOTAL ATOMIC CHARGES:
   4.8034806   4.8034806   8.7798352   8.7798352   7.7499577   7.7499577
   7.7499577   7.7499577   0.7291548   0.7291548   0.7291548   0.7291548
   0.7292297   0.7292297   0.7292297   0.7292297
 TTTTTTTTTTTTTTTTTTTTTTTTTTTTTT MOQGAD      TELAPSE      177.79 TCPU      176.64
 TTTTTTTTTTTTTTTTTTTTTTTTTTTTTT SHELLX      TELAPSE      199.37 TCPU      198.21
 TTTTTTTTTTTTTTTTTTTTTTTTTTTTTT MONMO3      TELAPSE      199.90 TCPU      198.74
 CYC   8 ETOT(AU) -4.476816051015E+02 DETOT -1.38E-05 tst  2.99E-07 PX  5.62E-04
 TTTTTTTTTTTTTTTTTTTTTTTTTTTTTT FDIK        TELAPSE      199.92 TCPU      198.76
 INSULATING STATE
 TOP OF VALENCE BANDS -    BAND     32; K    1; EIG -3.8427605E-01 AU
 BOTTOM OF VIRTUAL BANDS - BAND     33; K    1; EIG  2.0763384E-01 AU
 TTTTTTTTTTTTTTTTTTTTTTTTTTTTTT PDIG        TELAPSE      199.93 TCPU      198.77
 CHARGE NORMALIZATION FACTOR   1.00000000
 TOTAL ATOMIC CHARGES:
   4.8031848   4.8031848   8.7797938   8.7797938   7.7499392   7.7499392
   7.7499392   7.7499392   0.7292508   0.7292508   0.7292508   0.7292508
   0.7293207   0.7293207   0.7293207   0.7293207
 TTTTTTTTTTTTTTTTTTTTTTTTTTTTTT MOQGAD      TELAPSE      199.97 TCPU      198.81
 TTTTTTTTTTTTTTTTTTTTTTTTTTTTTT SHELLX      TELAPSE      221.54 TCPU      220.38
 TTTTTTTTTTTTTTTTTTTTTTTTTTTTTT MONMO3      TELAPSE      222.08 TCPU      220.91
 CYC   9 ETOT(AU) -4.476816101561E+02 DETOT -5.05E-06 tst  1.30E-07 PX  3.50E-04
 TTTTTTTTTTTTTTTTTTTTTTTTTTTTTT FDIK        TELAPSE      222.10 TCPU      220.93
 INSULATING STATE
 TOP OF VALENCE BANDS -    BAND     32; K    1; EIG -3.8431945E-01 AU
 BOTTOM OF VIRTUAL BANDS - BAND     33; K    1; EIG  2.0768985E-01 AU
 TTTTTTTTTTTTTTTTTTTTTTTTTTTTTT PDIG        TELAPSE      222.11 TCPU      220.94
 CHARGE NORMALIZATION FACTOR   1.00000000
 TOTAL ATOMIC CHARGES:
   4.8030470   4.8030470   8.7797459   8.7797459   7.7499085   7.7499085
   7.7499085   7.7499085   0.7293164   0.7293164   0.7293164   0.7293164
   0.7293786   0.7293786   0.7293786   0.7293786
 TTTTTTTTTTTTTTTTTTTTTTTTTTTTTT MOQGAD      TELAPSE      222.15 TCPU      220.98
 TTTTTTTTTTTTTTTTTTTTTTTTTTTTTT SHELLX      TELAPSE      243.74 TCPU      242.56
 TTTTTTTTTTTTTTTTTTTTTTTTTTTTTT MONMO3      TELAPSE      244.27 TCPU      243.10
 CYC  10 ETOT(AU) -4.476816122342E+02 DETOT -2.08E-06 tst  5.81E-08 PX  2.13E-04
 TTTTTTTTTTTTTTTTTTTTTTTTTTTTTT FDIK        TELAPSE      244.29 TCPU      243.12
 INSULATING STATE
 TOP OF VALENCE BANDS -    BAND     32; K    1; EIG -3.8434899E-01 AU
 BOTTOM OF VIRTUAL BANDS - BAND     33; K    1; EIG  2.0771731E-01 AU
 TTTTTTTTTTTTTTTTTTTTTTTTTTTTTT PDIG        TELAPSE      244.30 TCPU      243.13
 CHARGE NORMALIZATION FACTOR   1.00000000
 TOTAL ATOMIC CHARGES:
   4.8029806   4.8029806   8.7797053   8.7797053   7.7498789   7.7498789
   7.7498789   7.7498789   0.7293611   0.7293611   0.7293611   0.7293611
   0.7294171   0.7294171   0.7294171   0.7294171
 TTTTTTTTTTTTTTTTTTTTTTTTTTTTTT MOQGAD      TELAPSE      244.34 TCPU      243.17
 TTTTTTTTTTTTTTTTTTTTTTTTTTTTTT SHELLX      TELAPSE      265.92 TCPU      264.74
 TTTTTTTTTTTTTTTTTTTTTTTTTTTTTT MONMO3      TELAPSE      266.46 TCPU      265.27
 CYC  11 ETOT(AU) -4.476816131511E+02 DETOT -9.17E-07 tst  2.59E-08 PX  1.31E-04
 TTTTTTTTTTTTTTTTTTTTTTTTTTTTTT FDIK        TELAPSE      266.47 TCPU      265.29
 INSULATING STATE
 TOP OF VALENCE BANDS -    BAND     32; K    1; EIG -3.8436908E-01 AU
 BOTTOM OF VIRTUAL BANDS - BAND     33; K    1; EIG  2.0773131E-01 AU
 TTTTTTTTTTTTTTTTTTTTTTTTTTTTTT PDIG        TELAPSE      266.48 TCPU      265.30
 CHARGE NORMALIZATION FACTOR   1.00000000
 TOTAL ATOMIC CHARGES:
   4.8029466   4.8029466   8.7796739   8.7796739   7.7498565   7.7498565
   7.7498565   7.7498565   0.7293915   0.7293915   0.7293915   0.7293915
   0.7294418   0.7294418   0.7294418   0.7294418
 TTTTTTTTTTTTTTTTTTTTTTTTTTTTTT MOQGAD      TELAPSE      266.53 TCPU      265.34
 TTTTTTTTTTTTTTTTTTTTTTTTTTTTTT SHELLX      TELAPSE      288.10 TCPU      286.91
 TTTTTTTTTTTTTTTTTTTTTTTTTTTTTT MONMO3      TELAPSE      288.64 TCPU      287.45
 CYC  12 ETOT(AU) -4.476816135766E+02 DETOT -4.26E-07 tst  1.16E-08 PX  8.10E-05
 TTTTTTTTTTTTTTTTTTTTTTTTTTTTTT FDIK        TELAPSE      288.66 TCPU      287.47
 INSULATING STATE
 TOP OF VALENCE BANDS -    BAND     32; K    1; EIG -3.8438252E-01 AU
 BOTTOM OF VIRTUAL BANDS - BAND     33; K    1; EIG  2.0773876E-01 AU
 TTTTTTTTTTTTTTTTTTTTTTTTTTTTTT PDIG        TELAPSE      288.67 TCPU      287.48
 CHARGE NORMALIZATION FACTOR   1.00000000
 TOTAL ATOMIC CHARGES:
   4.8029285   4.8029285   8.7796520   8.7796520   7.7498413   7.7498413
   7.7498413   7.7498413   0.7294115   0.7294115   0.7294115   0.7294115
   0.7294570   0.7294570   0.7294570   0.7294570
 TTTTTTTTTTTTTTTTTTTTTTTTTTTTTT MOQGAD      TELAPSE      288.71 TCPU      287.52
 TTTTTTTTTTTTTTTTTTTTTTTTTTTTTT SHELLX      TELAPSE      310.30 TCPU      309.10
 TTTTTTTTTTTTTTTTTTTTTTTTTTTTTT MONMO3      TELAPSE      310.83 TCPU      309.63
 CYC  13 ETOT(AU) -4.476816137999E+02 DETOT -2.23E-07 tst  5.17E-09 PX  5.05E-05
 TTTTTTTTTTTTTTTTTTTTTTTTTTTTTT FDIK        TELAPSE      310.85 TCPU      309.65
 INSULATING STATE
 TOP OF VALENCE BANDS -    BAND     32; K    1; EIG -3.8439148E-01 AU
 BOTTOM OF VIRTUAL BANDS - BAND     33; K    1; EIG  2.0774274E-01 AU
 TTTTTTTTTTTTTTTTTTTTTTTTTTTTTT PDIG        TELAPSE      310.86 TCPU      309.66
 CHARGE NORMALIZATION FACTOR   1.00000000
 TOTAL ATOMIC CHARGES:
   4.8029182   4.8029182   8.7796366   8.7796366   7.7498310   7.7498310
   7.7498310   7.7498310   0.7294247   0.7294247   0.7294247   0.7294247
   0.7294669   0.7294669   0.7294669   0.7294669
 TTTTTTTTTTTTTTTTTTTTTTTTTTTTTT MOQGAD      TELAPSE      310.90 TCPU      309.70
 TTTTTTTTTTTTTTTTTTTTTTTTTTTTTT SHELLX      TELAPSE      332.48 TCPU      331.28
 TTTTTTTTTTTTTTTTTTTTTTTTTTTTTT MONMO3      TELAPSE      333.02 TCPU      331.81
 CYC  14 ETOT(AU) -4.476816139221E+02 DETOT -1.22E-07 tst  2.32E-09 PX  3.35E-05
 TTTTTTTTTTTTTTTTTTTTTTTTTTTTTT FDIK        TELAPSE      333.03 TCPU      331.82
 INSULATING STATE
 TOP OF VALENCE BANDS -    BAND     32; K    1; EIG -3.8439742E-01 AU
 BOTTOM OF VIRTUAL BANDS - BAND     33; K    1; EIG  2.0774502E-01 AU
 TTTTTTTTTTTTTTTTTTTTTTTTTTTTTT PDIG        TELAPSE      333.04 TCPU      331.84
 CHARGE NORMALIZATION FACTOR   1.00000000
 TOTAL ATOMIC CHARGES:
   4.8029125   4.8029125   8.7796263   8.7796263   7.7498238   7.7498238
   7.7498238   7.7498238   0.7294337   0.7294337   0.7294337   0.7294337
   0.7294731   0.7294731   0.7294731   0.7294731
 TTTTTTTTTTTTTTTTTTTTTTTTTTTTTT MOQGAD      TELAPSE      333.09 TCPU      331.88
 TTTTTTTTTTTTTTTTTTTTTTTTTTTTTT SHELLX      TELAPSE      354.67 TCPU      353.45
 TTTTTTTTTTTTTTTTTTTTTTTTTTTTTT MONMO3      TELAPSE      355.20 TCPU      353.99
 CYC  15 ETOT(AU) -4.476816139916E+02 DETOT -6.95E-08 tst  1.04E-09 PX  2.22E-05
 TTTTTTTTTTTTTTTTTTTTTTTTTTTTTT FDIK        TELAPSE      355.22 TCPU      354.00
 INSULATING STATE
 TOP OF VALENCE BANDS -    BAND     32; K    1; EIG -3.8440132E-01 AU
 BOTTOM OF VIRTUAL BANDS - BAND     33; K    1; EIG  2.0774633E-01 AU
 TTTTTTTTTTTTTTTTTTTTTTTTTTTTTT PDIG        TELAPSE      355.23 TCPU      354.01
 CHARGE NORMALIZATION FACTOR   1.00000000
 TOTAL ATOMIC CHARGES:
   4.8029087   4.8029087   8.7796193   8.7796193   7.7498191   7.7498191
   7.7498191   7.7498191   0.7294397   0.7294397   0.7294397   0.7294397
   0.7294772   0.7294772   0.7294772   0.7294772
 TTTTTTTTTTTTTTTTTTTTTTTTTTTTTT MOQGAD      TELAPSE      355.27 TCPU      354.06
 TTTTTTTTTTTTTTTTTTTTTTTTTTTTTT SHELLX      TELAPSE      376.85 TCPU      375.63
 +++ ENERGIES IN A.U. +++
 ::: EXT EL-POLE                                  -7.0460414745911E+02
 ::: EXT EL-SPHEROPOLE                             7.1550299030998E+00
 ::: BIELET ZONE E-E                               7.9496986814565E+02
 ::: TOTAL E-E                                     9.7520750589643E+01
 ::: TOTAL E-N + N-E                              -9.1688582216697E+02
 ::: TOTAL N-N                                    -7.5336138747023E+01
 ::: KINETIC ENERGY                                4.4701959629472E+02
 ::: TOTAL   ENERGY                               -4.4768161402964E+02
 ::: VIRIAL COEFFICIENT                            9.9926006835882E-01
 TTTTTTTTTTTTTTTTTTTTTTTTTTTTTT MONMO3      TELAPSE      377.38 TCPU      376.16
 CYC  16 ETOT(AU) -4.476816140296E+02 DETOT -3.80E-08 tst  4.67E-10 PX  2.22E-05

 == SCF ENDED - CONVERGENCE ON ENERGY      E(AU) -4.4768161402964E+02 CYCLES  16

 TOTAL ENERGY(HF)(AU)(  16) -4.4768161402964E+02 DE-3.8E-08 tst 4.7E-10 PX 2.2E-05
 EIGENVECTORS IN FORTRAN UNIT  8
 TTTTTTTTTTTTTTTTTTTTTTTTTTTTTT END         TELAPSE      377.44 TCPU      376.22
 EEEEEEEEEE TERMINATION  DATE 30 08 2013 TIME 09:44:37.2
