date Mon 16 Apr 18:18:27 BST 2018
master hostname nhpc16
system Linux nhpc16 4.4.74-18.20-default #1 SMP Fri Jun 30 19:01:19 UTC 2017 (b5079b8) x86_64 x86_64 x86_64 GNU/Linux
user giuseppe
output data in /home/giuseppe/Urea/urea_mol_trho.outp
properties in /prog/x86_64/crystal/CRYSTAL17/bin/Linux-ifort/intel-suite___2016.3
input data in /home/giuseppe/Urea/urea_mol_trho.d3
temporary directory /local/giuseppe//tmp_p5105_giuseppe
wave function data from /home/giuseppe/Urea/urea_mol.f9
wave function formatted data from /home/giuseppe/Urea/urea_mol.f98
TOPO
TRHO
-1                          IAUTO=-1
1,0,1,0,20,10,7.,0.         IEXT, ICRIT, IBPAT, IPRINT, NSTEP, NNB, RMAX, TH
END

         
 *******************************************************************************
 *                                                                             *
 *                               CRYSTAL17                                     *
 *                      public : 1.0.1 - Feb 1st, 2017                         *
 *                       HTTP://WWW.CRYSTAL.UNITO.IT                           *
 *                                                                             *
 *                              MAIN AUTHORS                                   *
 *                                                                             *
 *  R. DOVESI(1,11), V.R. SAUNDERS(2), C. ROETTI(1,11), R. ORLANDO(1,11),      *
 *  C.M. ZICOVICH-WILSON(1,3), F. PASCALE(4), B. CIVALLERI(1,11),              *
 *  K. DOLL(5), N.M. HARRISON(2,6), I.J. BUSH(7), Ph. D'ARCO(8),               *
 *  M. LLUNELL(9), M. CAUSA'(10), Y. NOEL(8), L. MASCHIO(1,11), A. ERBA(1,11)  *
 *  M. RE'RAT(14), S. CASASSA(1,11)                                            *
 *                                                                             *
 *        CONTRIBUTIONS TO THE CODE HAVE ALSO BEEN GIVEN BY                    *
 *                                                                             *
 *  M. FERRABONE(1,11), M. DE LA PIERRE(1,11), M. FERRERO(1,11),               *
 *  J. BAIMA(1,11), E. ALBANESE(1,11), M.F. PEINTINGER(12), R. BAST(13),       *
 *  B. KIRTMAN(15), V. LACIVITA(1,11), R. DEMICHELIS(1,16)                     *
 *  G. BRANDEBURG(17), S. SALUSTRO(1,11), G. SANSONE(1,11)                     *
 *  M.T. RUGGIERO(18)                                                          *
 *                                                                             *
 * (1) THEORETICAL CHEMISTRY GROUP - UNIVERSITA' DI TORINO - TORINO (ITALY)    *

 * (2) COMPUTATIONAL SCIENCE & ENGINEERING DEPARTMENT - STFC DARESBURY (UK)    *
 * (3) UNIVERSIDAD AUTONOMA DEL ESTADO DE MORELOS - CUERNAVACA (MEXICO)        *
 * (4) UNIVERSITE' DE LORRAINE - NANCY (FRANCE)                                *
 * (5) UNIVERSITAET STUTTGART- STUTTGART (GERMANY)                             *
 * (6) IMPERIAL COLLEGE - LONDON (UK)                                          *
 * (7) OXFORD E-RESEARCH CENTRE - OXFORD (UK)                                  *
 * (8) UPMC - SORBONNE UNIVERSITES - PARIS (FRANCE)                            *
 * (9) UNIVERSIDAD DE BARCELONA - BARCELONA (SPAIN)                            *
 *(10) UNIVERSITA' DI NAPOLI "FEDERICO II" - NAPOLI (ITALY)                    *
 *(11) NIS - NANOSTRUCTURED INTERFACES AND SURFACES - TORINO (ITALY)           *
 *(12) MPI FUER CHEMISCHE ENERGIEKONVERSION - MUELHEIM AN DER RUHR (GERMANY)   *
 *(13) UNIVERSITY OF TROMSO - TROMSO (NORWAY)                                  *
 *(14) UNIVERSITE' DE PAU ET DES PAYS DE L'ADOUR - PAU (FRANCE)                *
 *(15) UNIVERSITY OF CALIFORNIA SANTA BARBARA - SANTA BARBARA (USA)            *
 *(16) CURTIN UNIVERSITY - PERTH (AUSTRALIA)                                   *
 *(17) UNIVERSITY COLLEGE LONDON - LONDON (UK)                                 *
 *(18) CAMBRIDGE UNIVERSITY - CAMBRIDGE (UK)                                   *
 *                                                                             *
 *******************************************************************************
 EEEEEEEEEE STARTING  DATE 16 04 2018 TIME 18:18:28.2

 *******************************************************************************
 TEST12 - UREA BULK BASE 6-21 + POLARIZATION                                     
 CRYSTAL - PROPERTIES - TYPE OF CALCULATION :  RESTRICTED CLOSED SHELL
 *******************************************************************************
 HARTREE-FOCK HAMILTONIAN
 *******************************************************************************
 N. OF ATOMS PER CELL         8 COULOMB OVERLAP TOL          (T1) 10**   -6
 NUMBER OF SHELLS            28 COULOMB PENETRATION TOL      (T2) 10**   -6
 NUMBER OF AO                76 EXCHANGE OVERLAP TOL         (T3) 10**   -6
 N. OF ELECTRONS PER CELL    32 EXCHANGE PSEUDO OVP (F(G))   (T4) 10**   -6
 CORE ELECTRONS PER CELL      8 EXCHANGE PSEUDO OVP (P(G))   (T5) 10**  -12
 N. OF SYMMETRY OPERATORS     4 POLE ORDER IN MONO ZONE                   4
 *******************************************************************************
   ATOM N.AT.  SHELL    X(A)      Y(A)      Z(A)      EXAD       N.ELECT.
 *******************************************************************************
    1    6 C     4     0.000     0.000     0.000   8.000E-01       4.821
    2    8 O     4     0.000     0.000     1.261   8.000E-01       8.735
    3    7 N     4     0.000     1.148    -0.700   8.000E-01       7.716
    4    7 N     4     0.000    -1.148    -0.700   8.000E-01       7.716
    5    1 H     3     0.000     2.027    -0.203   1.100E+00       0.734
    6    1 H     3     0.000    -2.027    -0.203   1.100E+00       0.734
    7    1 H     3     0.000     1.134    -1.705   1.100E+00       0.772
    8    1 H     3     0.000    -1.134    -1.705   1.100E+00       0.772
 *******************************************************************************
 DE(K)                   0.000E+00  ENERGY LEVEL SHIFTING        0.00000
 TOTAL ENERGY -2.2378754820386E+02  CONVERGENCE ON ENER       -1.280E-08
 KIN. ENERGY   2.2350030590248E+02  VIR. COEFF.           9.99357813E-01
 N. OF SCF CYCLES               10  FERMI ENERGY              -0.367E+00
 WEIGHT OF F(I) IN F(I+1)      30
 *******************************************************************************
 TTTTTTTTTTTTTTTTTTTTTTTTTTTTTT gordsh1     TELAPSE        0.04 TCPU        0.00

 MATRIX SIZE: P(G)    5716, F(G)    2651, P(G) IRR    1758, F(G) IRR    1635
 MAX G-VECTOR INDEX FOR 1- AND 2-ELECTRON INTEGRALS   1


 CAPPA:IS1  1;IS2  1;IS3  1; K PTS MONK NET   1; SYMMOPS:K SPACE   8;G SPACE   4

 *******************************************************************************
 *                                                                             *
 *                              T O P O N D  2 0 1 3                           *
 *                                                                             *
 *           AN ELECTRON DENSITY TOPOLOGICAL ANALYSIS PROGRAM FOR              *
 *                 SYSTEMS PERIODIC IN N (N=0-3) DIMENSIONS                    *
 *                                                                             *
 *               USER MANUAL BY CARLO GATTI AND SILVIA CASASSA                 *
 *                                                                             *
 *            CNR-ISTM, ISTITUTO DI SCIENZE E TECNOLOGIE MOLECOLARI            *
 *                   VIA GOLGI 19  - I-20133 MILANO - ITALIA                   *
 *                     E-MAIL: c.gatti@istm.cnr.it                             *
 *                                                                             *
 *******************************************************************************

  TOPOND PARAMETER 

  LIM016 [INF24]        =       1000
  LIM015 [INF20]        =         28
  LIM035 [LIM016*INF5]  =       1000
  NTOMAX [LIM016*INF5]  =       8009
  INF79  [INF79]        =          8
  MAXGSTAR [INF2*INF5]  =          8

 *******************************************************************************

CRYSTAL INFORMATION ON THE REFERENCE SYSTEM:

 *******************************************************************************
 N. OF ATOMS PER CELL        8  COULOMB OVERLAP TOL         (T1) 10** -6
 NUMBER OF SHELLS           28  COULOMB PENETRATION TOL     (T2) 10** -6
 NUMBER OF AO               76  EXCHANGE OVERLAP TOL        (T3) 10** -6
 N. OF ELECTRONS PER CELL    32 EXCHANGE PSEUDO OVP (F(G))  (T4) 10** -6
 CORE ELECTRONS PER CELL     8  EXCHANGE PSEUDO OVP (P(G))  (T5) 10**-12
 N. OF SYMMETRY OPERATORS    4  POLE ORDER IN MONO ZONE                4
 *******************************************************************************
  ATOM  SHEL    X(AU)     Y(AU)     Z(AU)
 *******************************************************************************
    6 C    4     0.000     0.000     0.000
    8 O    4     0.000     0.000     2.384
    7 N    4     0.000     2.170    -1.322
    7 N    4     0.000    -2.170    -1.322
    1 H    3     0.000     3.830    -0.383
    1 H    3     0.000    -3.830    -0.383
    1 H    3     0.000     2.143    -3.222
    1 H    3     0.000    -2.143    -3.222
 *******************************************************************************
 DE(K)                  0.000E+00  CONVERGENCE ON EIGENVALUES   10**-17
 WEIGHT OF F(I) IN F(I+1)     30%  CONVERGENCE ON ENERGY        10**- 7
 TOTAL ENERGY     -2.23787548E+02  FERMI ENERGY              -3.672E-01
 KIN. ENERGY       2.23500306E+02  VIR. COEFF.           9.99357813E-01
 *******************************************************************************

 NEIGHBORS OF THE NON-EQUIVALENT ATOMS

 N = NUMBER OF NEIGHBORS AT DISTANCE R
    ATOM  N     R/ANG      R/AU   NEIGHBORS (ATOM LABELS AND CELL INDICES)

   1 C    1     1.2614     2.3837   2 O    0 0 0
   1 C    2     1.3447     2.5411   3 N    0 0 0   4 N    0 0 0
   1 C    2     2.0367     3.8488   5 H    0 0 0   6 H    0 0 0
   1 C    2     2.0477     3.8696   7 H    0 0 0   8 H    0 0 0

   2 O    1     1.2614     2.3837   1 C    0 0 0
   2 O    2     2.2726     4.2946   3 N    0 0 0   4 N    0 0 0
   2 O    2     2.5002     4.7246   5 H    0 0 0   6 H    0 0 0
   2 O    2     3.1758     6.0013   7 H    0 0 0   8 H    0 0 0

   3 N    1     1.0053     1.8997   7 H    0 0 0
   3 N    1     1.0092     1.9070   5 H    0 0 0
   3 N    1     1.3447     2.5411   1 C    0 0 0
   3 N    1     2.2726     4.2946   2 O    0 0 0
   3 N    1     2.2965     4.3397   4 N    0 0 0
   3 N    1     2.4939     4.7127   8 H    0 0 0
   3 N    1     3.2135     6.0726   6 H    0 0 0

   5 H    1     1.0092     1.9070   3 N    0 0 0
   5 H    1     1.7473     3.3019   7 H    0 0 0
   5 H    1     2.0367     3.8488   1 C    0 0 0
   5 H    1     2.5002     4.7246   2 O    0 0 0
   5 H    1     3.2135     6.0726   4 N    0 0 0
   5 H    1     3.4994     6.6130   8 H    0 0 0
   5 H    1     4.0531     7.6592   6 H    0 0 0

   7 H    1     1.0053     1.8997   3 N    0 0 0
   7 H    1     1.7473     3.3019   5 H    0 0 0
   7 H    1     2.0477     3.8696   1 C    0 0 0
   7 H    1     2.2682     4.2862   8 H    0 0 0
   7 H    1     2.4939     4.7127   4 N    0 0 0
   7 H    1     3.1758     6.0013   2 O    0 0 0
   7 H    1     3.4994     6.6130   6 H    0 0 0

 CLUSTERS AROUND EACH OF THE NON-EQUIVALENT ATOMS

 NON-EQUIV. ATOM       1 C (N.      1), CLUSTER OF      7 ATOMS
 NEW  OLD     AT. NU.         COORD.(AU)             DISTANCE (ANG)
     1       2       8        0.000   0.000   2.384          1.261
     2       3       7        0.000   2.170  -1.322          1.345
     3       4       7        0.000  -2.170  -1.322          1.345
     4       5       1        0.000   3.830  -0.383          2.037
     5       6       1        0.000  -3.830  -0.383          2.037
     6       7       1        0.000   2.143  -3.222          2.048
     7       8       1        0.000  -2.143  -3.222          2.048

 NON-EQUIV. ATOM       2 O (N.      2), CLUSTER OF      7 ATOMS
 NEW  OLD     AT. NU.         COORD.(AU)             DISTANCE (ANG)
     1       1       6        0.000   0.000   0.000          1.261
     2       3       7        0.000   2.170  -1.322          2.273
     3       4       7        0.000  -2.170  -1.322          2.273
     4       5       1        0.000   3.830  -0.383          2.500
     5       6       1        0.000  -3.830  -0.383          2.500
     6       7       1        0.000   2.143  -3.222          3.176
     7       8       1        0.000  -2.143  -3.222          3.176

 NON-EQUIV. ATOM       3 N (N.      3), CLUSTER OF      7 ATOMS
 NEW  OLD     AT. NU.         COORD.(AU)             DISTANCE (ANG)
     1       7       1        0.000   2.143  -3.222          1.005
     2       5       1        0.000   3.830  -0.383          1.009
     3       1       6        0.000   0.000   0.000          1.345
     4       2       8        0.000   0.000   2.384          2.273
     5       4       7        0.000  -2.170  -1.322          2.296
     6       8       1        0.000  -2.143  -3.222          2.494
     7       6       1        0.000  -3.830  -0.383          3.213

 NON-EQUIV. ATOM       4 H (N.      5), CLUSTER OF      7 ATOMS
 NEW  OLD     AT. NU.         COORD.(AU)             DISTANCE (ANG)
     1       3       7        0.000   2.170  -1.322          1.009
     2       7       1        0.000   2.143  -3.222          1.747
     3       1       6        0.000   0.000   0.000          2.037
     4       2       8        0.000   0.000   2.384          2.500
     5       4       7        0.000  -2.170  -1.322          3.213
     6       8       1        0.000  -2.143  -3.222          3.499
     7       6       1        0.000  -3.830  -0.383          4.053

 NON-EQUIV. ATOM       5 H (N.      7), CLUSTER OF      7 ATOMS
 NEW  OLD     AT. NU.         COORD.(AU)             DISTANCE (ANG)
     1       3       7        0.000   2.170  -1.322          1.005
     2       5       1        0.000   3.830  -0.383          1.747
     3       1       6        0.000   0.000   0.000          2.048
     4       8       1        0.000  -2.143  -3.222          2.268
     5       4       7        0.000  -2.170  -1.322          2.494
     6       2       8        0.000   0.000   2.384          3.176
     7       6       1        0.000  -3.830  -0.383          3.499

 *******************************************************************************
         TOPOLOGICAL ANALYSIS OF RHO : UNIQUE ATOM PAIRS CONSIDERED
 *******************************************************************************

 NON EQUIV. ATOM       1  C 

  NEW   SYM  OLD          COORD. (AU)         DISTANCE (ANG)
      1    O        2      0.000   0.000   2.384         1.261
      2    N        3      0.000   2.170  -1.322         1.345
      4    H        5      0.000   3.830  -0.383         2.037
      6    H        7      0.000   2.143  -3.222         2.048

 NON EQUIV. ATOM       2  O 

  NEW   SYM  OLD          COORD. (AU)         DISTANCE (ANG)
      2    N        3      0.000   2.170  -1.322         2.273
      4    H        5      0.000   3.830  -0.383         2.500
      6    H        7      0.000   2.143  -3.222         3.176

 NON EQUIV. ATOM       3  N 

  NEW   SYM  OLD          COORD. (AU)         DISTANCE (ANG)
      1    H        7      0.000   2.143  -3.222         1.005
      2    H        5      0.000   3.830  -0.383         1.009
      5    N        4      0.000  -2.170  -1.322         2.296
      6    H        8      0.000  -2.143  -3.222         2.494
      7    H        6      0.000  -3.830  -0.383         3.213

 NON EQUIV. ATOM       4  H 

  NEW   SYM  OLD          COORD. (AU)         DISTANCE (ANG)
      2    H        7      0.000   2.143  -3.222         1.747
      6    H        8      0.000  -2.143  -3.222         3.499
      7    H        6      0.000  -3.830  -0.383         4.053

 NON EQUIV. ATOM       5  H 

  NEW   SYM  OLD          COORD. (AU)         DISTANCE (ANG)
      4    H        8      0.000  -2.143  -3.222         2.268


 ************* T O P O L O G I C A L  A N A L I S Y S  O F  R H O *************


 COMPUTATIONAL CONDITIONS :
                           IAUTO                                     :    -1
                           ALGORITHM FOR CP SEARCH                   :    EF
                           DETERMINATION OF BOND PATH ATTRACTORS     :     T
                           MAX.NUM. OF N.R. OR EIG. FOL. STEPS       :    20
                           NEIGHBORS OF EACH NON-EQUIVALENT ATOM     :    10
                           THRESHOLD ON INTERNUC. DISTANCES (ANG)    :   5.0
                           PRINT N.RAPH OR E.FOL. OR PAR. EQ. SEARCH :     F
                           TOTAL NUMBER OF PAIRS CONSIDERED          :    16


 ********************
 SEARCH OF (3,-3) CPS
 ********************

 CP N.      1
 *********

 CP TYPE                        :  (3,-3)
 COORD(AU)  (X  Y  Z)           :  0.0000E+00  6.2813E-23 -2.2024E-06
 PROPERTIES (RHO,GRHO,LAP)      :  1.1793E+02  2.3627E-09 -4.3477E+05
 KINETIC ENERGY DENSITIES (G,K) :  3.0282E+00  1.0869E+05
 VIRIAL DENSITY                 : -1.0870E+05
 ELF(PAA)                       :  1.0000E+00

 SPECTRAL DECOMP. OF THE HESSIAN OF RHO

 EIGENVALUES (L1 L2 L3)         : -1.4492E+05 -1.4492E+05 -1.4492E+05
 EIGENVECTORS                   :  1.0000E+00  0.0000E+00  0.0000E+00
                                   0.0000E+00  1.0000E+00  0.0000E+00
                                   0.0000E+00  0.0000E+00  1.0000E+00


 CLUSTER OF ATOMS AROUND THE CP 
 NEW  OLD   AT. NU.         COORD.(AU)             DISTANCE (ANG)
     1       1       6        0.000   0.000   0.000          0.000
     2       2       8        0.000   0.000   2.384          1.261
     3       4       7        0.000  -2.170  -1.322          1.345
     4       3       7        0.000   2.170  -1.322          1.345
     5       6       1        0.000  -3.830  -0.383          2.037
     6       5       1        0.000   3.830  -0.383          2.037
     7       8       1        0.000  -2.143  -3.222          2.048
     8       7       1        0.000   2.143  -3.222          2.048

 CP N.      2
 *********

 CP TYPE                        :  (3,-3)
 COORD(AU)  (X  Y  Z)           :  0.0000E+00  8.2578E-24  2.3837E+00
 PROPERTIES (RHO,GRHO,LAP)      :  2.9174E+02  1.8144E-11 -1.9281E+06
 KINETIC ENERGY DENSITIES (G,K) :  2.9647E+01  4.8206E+05
 VIRIAL DENSITY                 : -4.8208E+05
 ELF(PAA)                       :  1.0000E+00

 SPECTRAL DECOMP. OF THE HESSIAN OF RHO

 EIGENVALUES (L1 L2 L3)         : -6.4271E+05 -6.4270E+05 -6.4269E+05
 EIGENVECTORS                   :  0.0000E+00  1.0000E+00  0.0000E+00
                                   0.0000E+00  0.0000E+00  1.0000E+00
                                   1.0000E+00  0.0000E+00  0.0000E+00


 CLUSTER OF ATOMS AROUND THE CP 
 NEW  OLD   AT. NU.         COORD.(AU)             DISTANCE (ANG)
     1       2       8        0.000   0.000   2.384          0.000
     2       1       6        0.000   0.000   0.000          1.261
     3       4       7        0.000  -2.170  -1.322          2.273
     4       3       7        0.000   2.170  -1.322          2.273
     5       6       1        0.000  -3.830  -0.383          2.500
     6       5       1        0.000   3.830  -0.383          2.500
     7       8       1        0.000  -2.143  -3.222          3.176
     8       7       1        0.000   2.143  -3.222          3.176

 CP N.      3
 *********

 CP TYPE                        :  (3,-3)
 COORD(AU)  (X  Y  Z)           :  0.0000E+00  2.1699E+00 -1.3224E+00
 PROPERTIES (RHO,GRHO,LAP)      :  1.9124E+02  8.5262E-10 -9.6252E+05
 KINETIC ENERGY DENSITIES (G,K) :  1.1419E+01  2.4064E+05
 VIRIAL DENSITY                 : -2.4065E+05
 ELF(PAA)                       :  1.0000E+00

 SPECTRAL DECOMP. OF THE HESSIAN OF RHO

 EIGENVALUES (L1 L2 L3)         : -3.2084E+05 -3.2084E+05 -3.2083E+05
 EIGENVECTORS                   :  0.0000E+00  0.0000E+00  1.0000E+00
                                   4.1759E-01  9.0863E-01  0.0000E+00
                                   9.0863E-01 -4.1759E-01  0.0000E+00


 CLUSTER OF ATOMS AROUND THE CP 
 NEW  OLD   AT. NU.         COORD.(AU)             DISTANCE (ANG)
     1       3       7        0.000   2.170  -1.322          0.000
     2       7       1        0.000   2.143  -3.222          1.005
     3       5       1        0.000   3.830  -0.383          1.009
     4       1       6        0.000   0.000   0.000          1.345
     5       2       8        0.000   0.000   2.384          2.273
     6       4       7        0.000  -2.170  -1.322          2.296
     7       8       1        0.000  -2.143  -3.222          2.494
     8       6       1        0.000  -3.830  -0.383          3.213

 CP N.      4
 *********

 CP TYPE                        :  (3,-3)
 COORD(AU)  (X  Y  Z)           :  0.0000E+00  3.6894E+00 -4.6486E-01
 PROPERTIES (RHO,GRHO,LAP)      :  3.6819E-01  5.9270E-09 -6.4947E+00
 KINETIC ENERGY DENSITIES (G,K) :  2.1584E-02  1.6453E+00
 VIRIAL DENSITY                 : -1.6669E+00
 ELF(PAA)                       :  9.9842E-01

 SPECTRAL DECOMP. OF THE HESSIAN OF RHO

 EIGENVALUES (L1 L2 L3)         : -2.5509E+00 -2.5082E+00 -1.4356E+00
 EIGENVECTORS                   :  0.0000E+00  1.0000E+00  0.0000E+00
                                  -4.9632E-01  0.0000E+00  8.6814E-01
                                   8.6814E-01  0.0000E+00  4.9632E-01


 CLUSTER OF ATOMS AROUND THE CP 
 NEW  OLD   AT. NU.         COORD.(AU)             DISTANCE (ANG)
     1       5       1        0.000   3.830  -0.383          0.086
     2       3       7        0.000   2.170  -1.322          0.923
     3       7       1        0.000   2.143  -3.222          1.673
     4       1       6        0.000   0.000   0.000          1.968
     5       2       8        0.000   0.000   2.384          2.467
     6       4       7        0.000  -2.170  -1.322          3.134
     7       8       1        0.000  -2.143  -3.222          3.414
     8       6       1        0.000  -3.830  -0.383          3.979

 CP N.      5
 *********

 CP TYPE                        :  (3,-3)
 COORD(AU)  (X  Y  Z)           :  0.0000E+00  2.1444E+00 -3.0678E+00
 PROPERTIES (RHO,GRHO,LAP)      :  3.7918E-01  1.7825E-15 -6.8397E+00
 KINETIC ENERGY DENSITIES (G,K) :  2.3193E-02  1.7331E+00
 VIRIAL DENSITY                 : -1.7563E+00
 ELF(PAA)                       :  9.9835E-01

 SPECTRAL DECOMP. OF THE HESSIAN OF RHO

 EIGENVALUES (L1 L2 L3)         : -2.6572E+00 -2.6145E+00 -1.5680E+00
 EIGENVECTORS                   :  0.0000E+00 -1.0000E+00  0.0000E+00
                                  -9.9994E-01  0.0000E+00  1.1088E-02
                                   1.1088E-02  0.0000E+00  9.9994E-01


 CLUSTER OF ATOMS AROUND THE CP 
 NEW  OLD   AT. NU.         COORD.(AU)             DISTANCE (ANG)
     1       7       1        0.000   2.143  -3.222          0.082
     2       3       7        0.000   2.170  -1.322          0.924
     3       5       1        0.000   3.830  -0.383          1.677
     4       1       6        0.000   0.000   0.000          1.981
     5       8       1        0.000  -2.143  -3.222          2.270
     6       4       7        0.000  -2.170  -1.322          2.463
     7       2       8        0.000   0.000   2.384          3.100
     8       6       1        0.000  -3.830  -0.383          3.466


 ********************
 SEARCH OF (3,-1) CPS
 ********************


 *********** CP SEARCH AMONG ATOM PAIRS WITH NON-EQUIV. ATOM     1 C  ***********


 CP N.      6
 *********

 CP TYPE                        :  (3,-1)
 COORD(AU)  (X  Y  Z)           :  0.0000E+00  7.3850E-01 -4.7245E-01
 PROPERTIES (RHO,GRHO,LAP)      :  3.3362E-01  1.6196E-15 -8.2584E-01
 KINETIC ENERGY DENSITIES (G,K) :  2.7048E-01  4.7695E-01
 VIRIAL DENSITY                 : -7.4743E-01
 ELF(PAA)                       :  7.4371E-01

 SPECTRAL DECOMP. OF THE HESSIAN OF RHO

 EIGENVALUES (L1 L2 L3)         : -8.5906E-01 -7.8330E-01  8.1652E-01
 EIGENVECTORS                   :  0.0000E+00  1.0000E+00  0.0000E+00
                                   5.1993E-01  0.0000E+00  8.5421E-01
                                   8.5421E-01  0.0000E+00 -5.1993E-01

 ELLIPTICITY                    :  9.6717E-02

 CLUSTER OF ATOMS AROUND THE CP 
 NEW  OLD   AT. NU.         COORD.(AU)             DISTANCE (ANG)
     1       1       6        0.000   0.000   0.000          0.464
     2       3       7        0.000   2.170  -1.322          0.881
     3       2       8        0.000   0.000   2.384          1.561
     4       4       7        0.000  -2.170  -1.322          1.603
     5       7       1        0.000   2.143  -3.222          1.634
     6       5       1        0.000   3.830  -0.383          1.636
     7       8       1        0.000  -2.143  -3.222          2.108
     8       6       1        0.000  -3.830  -0.383          2.418

 ******************************
 SEARCH OF BOND PATH ATTRACTORS
 ******************************

 ATTRACTOR CP TYPE              :  (3,-3)
 COORD(AU)  (X  Y  Z)           :  0.0000E+00  2.1699E+00 -1.3224E+00
 PROPERTIES (RHO,GRHO,LAP)      :  1.9124E+02  6.9290E-11 -9.6252E+05
 TRAJECTORY LENGTH(ANG)         :  8.8095E-01
 INTEGRATION STEPS              :      53

 CLUSTER OF ATOMS AROUND THE TERMINUS OF THE PATH 
 NEW  OLD   AT. NU.         COORD.(AU)             DISTANCE (ANG)
     1       3       7        0.000   2.170  -1.322          0.000
     2       7       1        0.000   2.143  -3.222          1.005
     3       5       1        0.000   3.830  -0.383          1.009
     4       1       6        0.000   0.000   0.000          1.345


 ATTRACTOR CP TYPE              :  (3,-3)
 COORD(AU)  (X  Y  Z)           :  0.0000E+00 -8.5385E-20 -2.2024E-06
 PROPERTIES (RHO,GRHO,LAP)      :  1.1793E+02  2.4826E-14 -4.3477E+05
 TRAJECTORY LENGTH(ANG)         :  4.6395E-01
 INTEGRATION STEPS              :      52

 CLUSTER OF ATOMS AROUND THE TERMINUS OF THE PATH 
 NEW  OLD   AT. NU.         COORD.(AU)             DISTANCE (ANG)
     1       1       6        0.000   0.000   0.000          0.000
     2       2       8        0.000   0.000   2.384          1.261
     3       4       7        0.000  -2.170  -1.322          1.345
     4       3       7        0.000   2.170  -1.322          1.345


 BPL (ANG) ; RAB ; (BPL/RAB)    :  1.3449E+00  1.3447E+00  1.0002E+00


 *********** CP SEARCH AMONG ATOM PAIRS WITH NON-EQUIV. ATOM     2 O  ***********



 *********** CP SEARCH AMONG ATOM PAIRS WITH NON-EQUIV. ATOM     3 N  ***********


 CP N.      7
 *********

 CP TYPE                        :  (3,-1)
 COORD(AU)  (X  Y  Z)           :  0.0000E+00  2.1486E+00 -2.7176E+00
 PROPERTIES (RHO,GRHO,LAP)      :  3.5200E-01  6.1027E-16 -1.7345E+00
 KINETIC ENERGY DENSITIES (G,K) :  5.9138E-02  4.9276E-01
 VIRIAL DENSITY                 : -5.5190E-01
 ELF(PAA)                       :  9.8641E-01

 SPECTRAL DECOMP. OF THE HESSIAN OF RHO

 EIGENVALUES (L1 L2 L3)         : -1.3855E+00 -1.2943E+00  9.4530E-01
 EIGENVECTORS                   :  0.0000E+00 -1.0000E+00  0.0000E+00
                                  -9.9992E-01  0.0000E+00  1.2749E-02
                                   1.2749E-02  0.0000E+00  9.9992E-01

 ELLIPTICITY                    :  7.0437E-02

 CLUSTER OF ATOMS AROUND THE CP 
 NEW  OLD   AT. NU.         COORD.(AU)             DISTANCE (ANG)
     1       7       1        0.000   2.143  -3.222          0.267
     2       3       7        0.000   2.170  -1.322          0.738
     3       5       1        0.000   3.830  -0.383          1.522
     4       1       6        0.000   0.000   0.000          1.833
     5       8       1        0.000  -2.143  -3.222          2.287
     6       4       7        0.000  -2.170  -1.322          2.402
     7       2       8        0.000   0.000   2.384          2.929
     8       6       1        0.000  -3.830  -0.383          3.396

 ******************************
 SEARCH OF BOND PATH ATTRACTORS
 ******************************

 ATTRACTOR CP TYPE              :  (3,-3)
 COORD(AU)  (X  Y  Z)           :  0.0000E+00  2.1699E+00 -1.3224E+00
 PROPERTIES (RHO,GRHO,LAP)      :  1.9124E+02  6.9290E-11 -9.6252E+05
 TRAJECTORY LENGTH(ANG)         :  7.3839E-01
 INTEGRATION STEPS              :      51

 CLUSTER OF ATOMS AROUND THE TERMINUS OF THE PATH 
 NEW  OLD   AT. NU.         COORD.(AU)             DISTANCE (ANG)
     1       3       7        0.000   2.170  -1.322          0.000
     2       7       1        0.000   2.143  -3.222          1.005
     3       5       1        0.000   3.830  -0.383          1.009
     4       1       6        0.000   0.000   0.000          1.345


 ATTRACTOR CP TYPE              :  (3,-3)
 COORD(AU)  (X  Y  Z)           :  0.0000E+00  2.1444E+00 -3.0678E+00
 PROPERTIES (RHO,GRHO,LAP)      :  3.7918E-01  2.1167E-12 -6.8397E+00
 TRAJECTORY LENGTH(ANG)         :  1.8532E-01
 INTEGRATION STEPS              :      18

 CLUSTER OF ATOMS AROUND THE TERMINUS OF THE PATH 
 NEW  OLD   AT. NU.         COORD.(AU)             DISTANCE (ANG)
     1       7       1        0.000   2.143  -3.222          0.082
     2       3       7        0.000   2.170  -1.322          0.924
     3       5       1        0.000   3.830  -0.383          1.677
     4       1       6        0.000   0.000   0.000          1.981


 BPL (ANG) ; RAB ; (BPL/RAB)    :  9.2371E-01  1.0053E+00  9.1885E-01

 CP N.      8
 *********

 CP TYPE                        :  (3,-1)
 COORD(AU)  (X  Y  Z)           :  0.0000E+00  3.4064E+00 -6.2641E-01
 PROPERTIES (RHO,GRHO,LAP)      :  3.4628E-01  3.9256E-16 -1.7998E+00
 KINETIC ENERGY DENSITIES (G,K) :  5.1762E-02  5.0171E-01
 VIRIAL DENSITY                 : -5.5347E-01
 ELF(PAA)                       :  9.8898E-01

 SPECTRAL DECOMP. OF THE HESSIAN OF RHO

 EIGENVALUES (L1 L2 L3)         : -1.4018E+00 -1.3153E+00  9.1733E-01
 EIGENVECTORS                   :  0.0000E+00  1.0000E+00  0.0000E+00
                                  -4.9469E-01  0.0000E+00  8.6907E-01
                                   8.6907E-01  0.0000E+00  4.9469E-01

 ELLIPTICITY                    :  6.5707E-02

 CLUSTER OF ATOMS AROUND THE CP 
 NEW  OLD   AT. NU.         COORD.(AU)             DISTANCE (ANG)
     1       5       1        0.000   3.830  -0.383          0.258
     2       3       7        0.000   2.170  -1.322          0.751
     3       7       1        0.000   2.143  -3.222          1.528
     4       1       6        0.000   0.000   0.000          1.833
     5       2       8        0.000   0.000   2.384          2.406
     6       4       7        0.000  -2.170  -1.322          2.974
     7       8       1        0.000  -2.143  -3.222          3.242
     8       6       1        0.000  -3.830  -0.383          3.831

 ******************************
 SEARCH OF BOND PATH ATTRACTORS
 ******************************

 ATTRACTOR CP TYPE              :  (3,-3)
 COORD(AU)  (X  Y  Z)           :  0.0000E+00  3.6894E+00 -4.6486E-01
 PROPERTIES (RHO,GRHO,LAP)      :  3.6819E-01  1.3390E-14 -6.4947E+00
 TRAJECTORY LENGTH(ANG)         :  1.7247E-01
 INTEGRATION STEPS              :      18

 CLUSTER OF ATOMS AROUND THE TERMINUS OF THE PATH 
 NEW  OLD   AT. NU.         COORD.(AU)             DISTANCE (ANG)
     1       5       1        0.000   3.830  -0.383          0.086
     2       3       7        0.000   2.170  -1.322          0.923
     3       7       1        0.000   2.143  -3.222          1.673
     4       1       6        0.000   0.000   0.000          1.968


 ATTRACTOR CP TYPE              :  (3,-3)
 COORD(AU)  (X  Y  Z)           :  0.0000E+00  2.1699E+00 -1.3224E+00
 PROPERTIES (RHO,GRHO,LAP)      :  1.9124E+02  6.9290E-11 -9.6252E+05
 TRAJECTORY LENGTH(ANG)         :  7.5087E-01
 INTEGRATION STEPS              :      49

 CLUSTER OF ATOMS AROUND THE TERMINUS OF THE PATH 
 NEW  OLD   AT. NU.         COORD.(AU)             DISTANCE (ANG)
     1       3       7        0.000   2.170  -1.322          0.000
     2       7       1        0.000   2.143  -3.222          1.005
     3       5       1        0.000   3.830  -0.383          1.009
     4       1       6        0.000   0.000   0.000          1.345


 BPL (ANG) ; RAB ; (BPL/RAB)    :  9.2334E-01  1.0092E+00  9.1496E-01


 *********** CP SEARCH AMONG ATOM PAIRS WITH NON-EQUIV. ATOM     4 H  ***********



 *********** CP SEARCH AMONG ATOM PAIRS WITH NON-EQUIV. ATOM     5 H  ***********



 ********************
 SEARCH OF (3,+1) CPS
 ********************


 ********************
 SEARCH OF (3,+3) CPS
 ********************


 NUMBER OF ATOM PAIRS INVESTIGATED:    16
 NUMBER OF UNIQUE CRI. POINT FOUND:     8


        ********** C R I T I C A L  P O I N T S  F O U N D **********


 CP N.  X(ANG)  Y(ANG)  Z(ANG)  TYPE      RHO    LAPL    L1(V1)  L2(V2)  L3(V3) ELLIP

 ************************************************************************************
    1)  0.000   0.000  -0.000  (3,-3)  117.926-999.999-999.999-999.999-999.999
                                                         1.000   0.000   0.000
                                                         0.000   1.000   0.000
                                                         0.000   0.000   1.000


    2)  0.000   0.000   1.261  (3,-3)  291.736-999.999-999.999-999.999-999.999
                                                         0.000   1.000   0.000
                                                         0.000   0.000   1.000
                                                         1.000   0.000   0.000


    3)  0.000   1.148  -0.700  (3,-3)  191.242-999.999-999.999-999.999-999.999
                                                         0.000   0.000   1.000
                                                         0.418   0.909   0.000
                                                         0.909  -0.418   0.000


    4)  0.000   1.952  -0.246  (3,-3)    0.368  -6.495  -2.551  -2.508  -1.436
                                                         0.000   1.000   0.000
                                                        -0.496   0.000   0.868
                                                         0.868   0.000   0.496


    5)  0.000   1.135  -1.623  (3,-3)    0.379  -6.840  -2.657  -2.615  -1.568
                                                         0.000  -1.000   0.000
                                                        -1.000   0.000   0.011
                                                         0.011   0.000   1.000


    6)  0.000   0.391  -0.250  (3,-1)    0.334  -0.826  -0.859  -0.783   0.817  0.097

       ( C     1    0.464 ANG)                             0.000   1.000   0.000
       ( N     3    0.881 ANG)                             0.520   0.000   0.854
                                                         0.854   0.000  -0.520


    7)  0.000   1.137  -1.438  (3,-1)    0.352  -1.734  -1.385  -1.294   0.945  0.070

       ( H     7    0.185 ANG)                             0.000  -1.000   0.000
       ( N     3    0.738 ANG)                            -1.000   0.000   0.013
                                                         0.013   0.000   1.000


    8)  0.000   1.803  -0.331  (3,-1)    0.346  -1.800  -1.402  -1.315   0.917  0.066

       ( H     5    0.172 ANG)                             0.000   1.000   0.000
       ( N     3    0.751 ANG)                            -0.495   0.000   0.869
                                                         0.869   0.000   0.495


 ************************************************************************************
 TTTTTTTTTTTTTTTTTTTTTTTTTTTTTT TRHO        TELAPSE        0.87 TCPU        0.83
 TTTTTTTTTTTTTTTTTTTTTTTTTTTTTT END         TELAPSE        0.87 TCPU        0.83
 EEEEEEEEEE TERMINATION  DATE 16 04 2018 TIME 18:18:29.0
Mon 16 Apr 18:18:29 BST 2018
Contents of temporary directory:
total 304
-rw-r--r-- 1 giuseppe users    461 Apr 16 18:18 fort.100
-rw-r--r-- 1 giuseppe users    385 Apr 16 18:18 fort.101
-rw-r--r-- 1 giuseppe users  21216 Apr 16 18:18 fort.11
-rw-r--r-- 1 giuseppe users  45736 Apr 16 18:18 fort.13
-rw-r--r-- 1 giuseppe users  21216 Apr 16 18:18 fort.3
-rw-r--r-- 1 giuseppe users  56348 Apr 16 18:18 fort.9
-rw-r--r-- 1 giuseppe users 145067 Apr 16 18:18 fort.98
file fort.98 saved as /home/giuseppe/Urea/urea_mol_trho.f98
file fort.13 saved as /home/giuseppe/Urea/urea_mol_trho.f13
removing temporary directories /local/giuseppe//tmp_p5105_giuseppe
