
         
 *******************************************************************************
 *                                                                             *
 *                               CRYSTAL17                                     *
 *                      public : 1.0.2 - March 1st, 2018                       *
 *                       HTTP://WWW.CRYSTAL.UNITO.IT                           *
 *                                                                             *
 *                              MAIN AUTHORS                                   *
 *                                                                             *
 *  R. DOVESI(1,11), V.R. SAUNDERS(2), C. ROETTI(1,11), R. ORLANDO(1,11),      *
 *  C.M. ZICOVICH-WILSON(1,3), F. PASCALE(4), B. CIVALLERI(1,11),              *
 *  K. DOLL(5), N.M. HARRISON(2,6), I.J. BUSH(7), Ph. D'ARCO(8),               *
 *  M. LLUNELL(9), M. CAUSA'(10), Y. NOEL(8), L. MASCHIO(1,11), A. ERBA(1,11)  *
 *  M. RE'RAT(14), S. CASASSA(1,11)                                            *
 *                                                                             *
 *        CONTRIBUTIONS TO THE CODE HAVE ALSO BEEN GIVEN BY                    *
 *                                                                             *
 *  M. FERRABONE(1,11), M. DE LA PIERRE(1,11), M. FERRERO(1,11),               *
 *  J. BAIMA(1,11), E. ALBANESE(1,11), M.F. PEINTINGER(12), R. BAST(13),       *
 *  B. KIRTMAN(15), V. LACIVITA(1,11), R. DEMICHELIS(1,16)                     *
 *  G. BRANDEBURG(17), S. SALUSTRO(1,11), G. SANSONE(1,11)                     *
 *  M.T. RUGGIERO(18)                                                          *
 *                                                                             *
 * (1) THEORETICAL CHEMISTRY GROUP - UNIVERSITA' DI TORINO - TORINO (ITALY)    *
 * (2) COMPUTATIONAL SCIENCE & ENGINEERING DEPARTMENT - STFC DARESBURY (UK)    *
 * (3) UNIVERSIDAD AUTONOMA DEL ESTADO DE MORELOS - CUERNAVACA (MEXICO)        *
 * (4) UNIVERSITE' DE LORRAINE - NANCY (FRANCE)                                *
 * (5) UNIVERSITAET STUTTGART- STUTTGART (GERMANY)                             *
 * (6) IMPERIAL COLLEGE - LONDON (UK)                                          *
 * (7) OXFORD E-RESEARCH CENTRE - OXFORD (UK)                                  *
 * (8) UPMC - SORBONNE UNIVERSITES - PARIS (FRANCE)                            *
 * (9) UNIVERSIDAD DE BARCELONA - BARCELONA (SPAIN)                            *
 *(10) UNIVERSITA' DI NAPOLI "FEDERICO II" - NAPOLI (ITALY)                    *
 *(11) NIS - NANOSTRUCTURED INTERFACES AND SURFACES - TORINO (ITALY)           *
 *(12) MPI FUER CHEMISCHE ENERGIEKONVERSION - MUELHEIM AN DER RUHR (GERMANY)   *
 *(13) UNIVERSITY OF TROMSO - TROMSO (NORWAY)                                  *
 *(14) UNIVERSITE' DE PAU ET DES PAYS DE L'ADOUR - PAU (FRANCE)                *
 *(15) UNIVERSITY OF CALIFORNIA SANTA BARBARA - SANTA BARBARA (USA)            *
 *(16) CURTIN UNIVERSITY - PERTH (AUSTRALIA)                                   *
 *(17) UNIVERSITY COLLEGE LONDON - LONDON (UK)                                 *
 *(18) CAMBRIDGE UNIVERSITY - CAMBRIDGE (UK)                                   *
 *                                                                             *
 *******************************************************************************
 EEEEEEEEEE STARTING  DATE 24 09 2020 TIME 14:32:02.7
 UREA BULK BASE 6-21 + POLARIZATION                                              

 GEOMETRY INPUT FROM EXTERNAL FILE (FORTRAN UNIT 34)
 3D - CRYSTAL 

 *******************************************************************************
 LATTICE PARAMETERS  (ANGSTROMS AND DEGREES) - PRIMITIVE CELL
       A          B          C        ALPHA      BETA     GAMMA        VOLUME
    5.64882    5.64882    4.67990    90.00000  90.00000  90.00000    149.331491
 INFORMATION **** CHKGRP **** SPGR WITH NO INVERSION

 NUMBER OF IRREDUCIBLE ATOMS IN THE CELL:    5

 CARTESIAN COORDINATES (ANGSTROM) - IRREDUCIBLE ATOMS AND SYMMETRY RELATED

 AT.IRR.  AT  AT.N.          X                   Y                   Z
     1     1     6    0.000000000000E+00  2.824408528387E+00  1.504873118297E+00
     1     2     6    2.824408528387E+00  0.000000000000E+00 -1.504873118297E+00
     3     3     8    0.000000000000E+00  2.824408528387E+00 -1.931773208650E+00
     3     4     8    2.824408528387E+00  0.000000000000E+00  1.931773208650E+00
     5     5     7    8.020461992600E-01 -2.022362329127E+00  8.036721690600E-01
     5     6     7   -8.020461992600E-01  2.022362329127E+00  8.036721690600E-01
     5     7     7   -2.022362329127E+00 -8.020461992600E-01 -8.036721690600E-01
     5     8     7    2.022362329127E+00  8.020461992600E-01 -8.036721690600E-01
     9     9     1    1.418667190328E+00 -1.405741338059E+00  1.286134857017E+00
     9    10     1   -1.418667190328E+00  1.405741338059E+00  1.286134857017E+00
     9    11     1   -1.405741338059E+00 -1.418667190328E+00 -1.286134857017E+00
     9    12     1    1.405741338059E+00  1.418667190328E+00 -1.286134857017E+00
    13    13     1    7.882157029120E-01 -2.036192825475E+00 -1.923378714090E-01
    13    14     1   -7.882157029120E-01  2.036192825475E+00 -1.923378714090E-01
    13    15     1   -2.036192825475E+00 -7.882157029120E-01  1.923378714090E-01
    13    16     1    2.036192825475E+00  7.882157029120E-01  1.923378714090E-01

 SPACE  GROUP  N.                     :  113
 NUMBER OF SYMMETRY OPERATORS         :    8
 *******************************************************************************
 LATTICE PARAMETERS (ANGSTROMS AND DEGREES) - BOHR = 0.5291772083 ANGSTROM
 PRIMITIVE CELL - CENTRING CODE 1/0 VOLUME=   149.331491 - DENSITY  1.335 g/cm^3
         A              B              C           ALPHA      BETA       GAMMA 
     5.64881706     5.64881706     4.67989795    90.000000  90.000000  90.000000
 *******************************************************************************
 ATOMS IN THE ASYMMETRIC UNIT    5 - ATOMS IN THE UNIT CELL:   16
     ATOM                 X/A                 Y/B                 Z/C    
 *******************************************************************************
      1 T   6 C     0.000000000000E+00 -4.999999999996E-01  3.215610971066E-01
      2 F   6 C    -4.999999999996E-01  0.000000000000E+00 -3.215610971066E-01
      3 T   8 O     0.000000000000E+00 -4.999999999996E-01 -4.127810542843E-01
      4 F   8 O    -4.999999999996E-01  0.000000000000E+00  4.127810542843E-01
      5 T   7 N     1.419848069427E-01 -3.580151930577E-01  1.717285671828E-01
      6 F   7 N    -1.419848069427E-01  3.580151930577E-01  1.717285671828E-01
      7 F   7 N    -3.580151930577E-01 -1.419848069427E-01 -1.717285671828E-01
      8 F   7 N     3.580151930577E-01  1.419848069427E-01 -1.717285671828E-01
      9 T   1 H     2.511441202770E-01 -2.488558797234E-01  2.748211331713E-01
     10 F   1 H    -2.511441202770E-01  2.488558797234E-01  2.748211331713E-01
     11 F   1 H    -2.488558797234E-01 -2.511441202770E-01 -2.748211331713E-01
     12 F   1 H     2.488558797234E-01  2.511441202770E-01 -2.748211331713E-01
     13 T   1 H     1.395364188627E-01 -3.604635811377E-01 -4.109873197511E-02
     14 F   1 H    -1.395364188627E-01  3.604635811377E-01 -4.109873197511E-02
     15 F   1 H    -3.604635811377E-01 -1.395364188627E-01  4.109873197511E-02
     16 F   1 H     3.604635811377E-01  1.395364188627E-01  4.109873197511E-02

 T = ATOM BELONGING TO THE ASYMMETRIC UNIT
 *******************************************************************************
 * GEOMETRY EDITING - INPUT COORDINATES ARE GIVEN IN ANGSTROM         
 *******************************************************************************

 GEOMETRY NOW FULLY CONSISTENT WITH THE GROUP
 INFORMATION **** NEW DEFAULT **** FINALRUN 4 FOR GEOMETRY OPTIMIZATIONS
 INFORMATION **** NEW DEFAULT **** OPTGEOM OPTIMIZES BOTH ATOMIC COORDINATES AND CELL PARAMETERS
 INFORMATION **** NEW DEFAULT **** TOL. ON ATOMIC DISP TO REDEFINE REF. GEOMETRY: 0.8 Angs
 INFORMATION **** NEW DEFAULT **** N POINTS TO REDEFINE REF. GEOMETRY: N OF OPT DEGS OF FREEDOM
 INFORMATION **** NEW DEFAULT **** TOL. ON ENERGY TO REDEFINE REF. GEOMETRY: 10**-3*(5*N. ATOMS)

 IMPORTANT INFORMATION:
 THE COORDINATE SYSTEM ADOPTED IN THE OPTIMIZATION IS NOT IN
 GENERAL HOMOGENEOUS UNITS. FOR THIS REASON THE GRADIENT AND 
 HESSIAN MATRIX IN TERMS OF THIS SYSTEM ARE GIVEN WITHOUT
 UNITS. FOR MORE DETAILS SEE THE MANUAL.

 *******************************************************************************
 COMBINED CELL/ATOM OPTIMIZATION CONTROL

 INITIAL TRUST RADIUS         0.50000 MAXIMUM TRUST RADIUS               4.00000
 MAXIMUM GRADIENT COMPONENT   0.00045 MAXIMUM DISPLACEMENT COMPONENT     0.00180
 R.M.S. OF GRADIENT COMPONENT 0.00030 R.M.S. OF DISPLACEMENT COMPONENTS  0.00120
 THRESHOLD ON ENERGY CHANGE 0.100E-06 EXTRAPOLATING POLYNOMIAL ORDER           2
 MAXIMUM ALLOWED NUMBER OF STEPS   -1 SORTING OF ENERGY POINTS:               NO
 ANALYTICAL  GRADIENT                 HESSIAN UPDATING                      BFGS
 STEP SIZE NUMERICAL GRADIENT 0.00100
 INITIAL HESSIAN MATRIX: SCHLEGEL MODEL 2
 *******************************************************************************


 GCALCO - MAX INDICES DIRECT LATTICE VECTOR    14    14    16
 NO.OF VECTORS CREATED 6999 STARS  524 RMAX   118.85995 BOHR

 GEOMETRY FOR WAVE FUNCTION - DIMENSIONALITY OF THE SYSTEM    3
 (NON PERIODIC DIRECTION: LATTICE PARAMETER FORMALLY SET TO 500)
 *******************************************************************************
 LATTICE PARAMETERS (ANGSTROMS AND DEGREES) - BOHR = 0.5291772083 ANGSTROM
 PRIMITIVE CELL - CENTRING CODE 1/0 VOLUME=   149.331491 - DENSITY  1.335 g/cm^3
         A              B              C           ALPHA      BETA       GAMMA 
     5.64881706     5.64881706     4.67989795    90.000000  90.000000  90.000000
 *******************************************************************************
 ATOMS IN THE ASYMMETRIC UNIT    5 - ATOMS IN THE UNIT CELL:   16
     ATOM                 X/A                 Y/B                 Z/C    
 *******************************************************************************
      1 T   6 C     4.426265567204E-13  5.000000000000E-01  3.215610971066E-01
      2 F   6 C    -5.000000000000E-01  4.426098820919E-13 -3.215610971066E-01
      3 T   8 O     4.426265567204E-13  5.000000000000E-01 -4.127810542843E-01
      4 F   8 O    -5.000000000000E-01  4.426098820919E-13  4.127810542843E-01
      5 T   7 N     1.419848069429E-01 -3.580151930571E-01  1.717285671828E-01
      6 F   7 N    -1.419848069429E-01  3.580151930571E-01  1.717285671828E-01
      7 F   7 N    -3.580151930562E-01 -1.419848069421E-01 -1.717285671828E-01
      8 F   7 N     3.580151930579E-01  1.419848069438E-01 -1.717285671828E-01
      9 T   1 H     2.511441202772E-01 -2.488558797228E-01  2.748211331713E-01
     10 F   1 H    -2.511441202772E-01  2.488558797228E-01  2.748211331713E-01
     11 F   1 H    -2.488558797219E-01 -2.511441202763E-01 -2.748211331713E-01
     12 F   1 H     2.488558797237E-01  2.511441202781E-01 -2.748211331713E-01
     13 T   1 H     1.395364188629E-01 -3.604635811371E-01 -4.109873197511E-02
     14 F   1 H    -1.395364188629E-01  3.604635811371E-01 -4.109873197511E-02
     15 F   1 H    -3.604635811362E-01 -1.395364188620E-01  4.109873197511E-02
     16 F   1 H     3.604635811380E-01  1.395364188638E-01  4.109873197511E-02

 T = ATOM BELONGING TO THE ASYMMETRIC UNIT

 ****    8 SYMMOPS - TRANSLATORS IN FRACTIONAL UNITS
 **** MATRICES AND TRANSLATORS IN THE CRYSTALLOGRAPHIC REFERENCE FRAME
   V INV                    ROTATION MATRICES                   TRANSLATORS
   1   1  1.00  0.00  0.00  0.00  1.00  0.00  0.00  0.00  1.00  0.00  0.00  0.00
   2   2 -1.00  0.00  0.00  0.00 -1.00  0.00  0.00  0.00  1.00  0.00  0.00  0.00
   3   3  1.00  0.00  0.00  0.00 -1.00  0.00  0.00  0.00 -1.00  0.50  0.50  0.00
   4   4 -1.00  0.00  0.00  0.00  1.00  0.00  0.00  0.00 -1.00  0.50  0.50  0.00
   5   5  0.00  1.00  0.00  1.00  0.00  0.00  0.00  0.00  1.00  0.50  0.50  0.00
   6   6  0.00 -1.00  0.00 -1.00  0.00  0.00  0.00  0.00  1.00  0.50  0.50  0.00
   7   8  0.00 -1.00  0.00  1.00  0.00  0.00  0.00  0.00 -1.00  0.00  0.00  0.00
   8   7  0.00  1.00  0.00 -1.00  0.00  0.00  0.00  0.00 -1.00  0.00  0.00  0.00

 DIRECT LATTICE VECTORS CARTESIAN COMPONENTS (ANGSTROM)
          X                    Y                    Z
   0.564881705677E+01   0.000000000000E+00   0.000000000000E+00
   0.000000000000E+00   0.564881705677E+01   0.000000000000E+00
   0.000000000000E+00   0.000000000000E+00   0.467989794735E+01


 CARTESIAN COORDINATES - PRIMITIVE CELL
 *******************************************************************************
 *      ATOM          X(ANGSTROM)         Y(ANGSTROM)         Z(ANGSTROM)
 *******************************************************************************
    1     6 C     2.500316443382E-12  2.824408528385E+00  1.504873118297E+00
    2     6 C     2.824408528385E+00  2.500222251456E-12 -1.504873118297E+00
    3     8 O     2.500316443382E-12  2.824408528385E+00 -1.931773208650E+00
    4     8 O     2.824408528385E+00  2.500222251456E-12  1.931773208650E+00
    5     7 N     8.020461992615E-01 -2.022362329123E+00  8.036721690600E-01
    6     7 N    -8.020461992615E-01  2.022362329123E+00  8.036721690600E-01
    7     7 N    -2.022362329118E+00 -8.020461992565E-01 -8.036721690600E-01
    8     7 N     2.022362329128E+00  8.020461992665E-01 -8.036721690600E-01
    9     1 H     1.418667190329E+00 -1.405741338055E+00  1.286134857017E+00
   10     1 H    -1.418667190329E+00  1.405741338055E+00  1.286134857017E+00
   11     1 H    -1.405741338051E+00 -1.418667190325E+00 -1.286134857017E+00
   12     1 H     1.405741338060E+00  1.418667190335E+00 -1.286134857017E+00
   13     1 H     7.882157029135E-01 -2.036192825471E+00 -1.923378714090E-01
   14     1 H    -7.882157029135E-01  2.036192825471E+00 -1.923378714090E-01
   15     1 H    -2.036192825466E+00 -7.882157029085E-01  1.923378714090E-01
   16     1 H     2.036192825476E+00  7.882157029185E-01  1.923378714090E-01

 *******************************************************************************
 LOCAL ATOMIC FUNCTIONS BASIS SET
 *******************************************************************************
   ATOM   X(AU)   Y(AU)   Z(AU)  N. TYPE  EXPONENT  S COEF   P COEF   D/F/G COEF
 *******************************************************************************
   1 C    0.000   5.337   2.844
                                  1 S  
                                         3.048E+03 1.826E-03 0.000E+00 0.000E+00
                                         4.564E+02 1.406E-02 0.000E+00 0.000E+00
                                         1.037E+02 6.876E-02 0.000E+00 0.000E+00
                                         2.923E+01 2.304E-01 0.000E+00 0.000E+00
                                         9.349E+00 4.685E-01 0.000E+00 0.000E+00
                                         3.189E+00 3.628E-01 0.000E+00 0.000E+00
                           2-     5 SP 
                                         3.665E+00-3.959E-01 2.365E-01 0.000E+00
                                         7.705E-01 1.216E+00 8.606E-01 0.000E+00
                           6-     9 SP 
                                         1.959E-01 1.000E+00 1.000E+00 0.000E+00
                          10-    14 D  
                                         8.000E-01 0.000E+00 0.000E+00 1.000E+00
   2 C    5.337   0.000  -2.844
   3 O    0.000   5.337  -3.651
                                 29 S  
                                         5.472E+03 1.832E-03 0.000E+00 0.000E+00
                                         8.178E+02 1.410E-02 0.000E+00 0.000E+00
                                         1.864E+02 6.863E-02 0.000E+00 0.000E+00
                                         5.302E+01 2.294E-01 0.000E+00 0.000E+00
                                         1.718E+01 4.664E-01 0.000E+00 0.000E+00
                                         5.912E+00 3.642E-01 0.000E+00 0.000E+00
                          30-    33 SP 
                                         7.403E+00-4.045E-01 2.446E-01 0.000E+00
                                         1.576E+00 1.222E+00 8.540E-01 0.000E+00
                          34-    37 SP 
                                         3.737E-01 1.000E+00 1.000E+00 0.000E+00
                          38-    42 D  
                                         8.000E-01 0.000E+00 0.000E+00 1.000E+00
   4 O    5.337   0.000   3.651
   5 N    1.516  -3.822   1.519
                                 57 S  
                                         4.150E+03 1.845E-03 0.000E+00 0.000E+00
                                         6.201E+02 1.416E-02 0.000E+00 0.000E+00
                                         1.417E+02 6.863E-02 0.000E+00 0.000E+00
                                         4.034E+01 2.286E-01 0.000E+00 0.000E+00
                                         1.303E+01 4.662E-01 0.000E+00 0.000E+00
                                         4.470E+00 3.657E-01 0.000E+00 0.000E+00
                          58-    61 SP 
                                         5.425E+00-4.133E-01 2.380E-01 0.000E+00
                                         1.149E+00 1.224E+00 8.590E-01 0.000E+00
                          62-    65 SP 
                                         2.832E-01 1.000E+00 1.000E+00 0.000E+00
                          66-    70 D  
                                         8.000E-01 0.000E+00 0.000E+00 1.000E+00
   6 N   -1.516   3.822   1.519
   7 N   -3.822  -1.516  -1.519
   8 N    3.822   1.516  -1.519
   9 H    2.681  -2.656   2.430
                                113 S  
                                         5.447E+00 1.563E-01 0.000E+00 0.000E+00
                                         8.245E-01 9.047E-01 0.000E+00 0.000E+00
                                114 S  
                                         1.832E-01 1.000E+00 0.000E+00 0.000E+00
                         115-   117 P  
                                         1.100E+00 0.000E+00 1.000E+00 0.000E+00
  10 H   -2.681   2.656   2.430
  11 H   -2.656  -2.681  -2.430
  12 H    2.656   2.681  -2.430
  13 H    1.490  -3.848  -0.363
  14 H   -1.490   3.848  -0.363
  15 H   -3.848  -1.490   0.363
  16 H    3.848   1.490   0.363
 INFORMATION **** SET_MPP **** PCRYSTAL CALCULATION
 INFORMATION **** READM2 **** NEW DEFAULT: FOCK/KS MATRIX MIXING SET TO 30 %
 INFORMATION **** READM2 **** NEW DEFAULT: FULL DIRECT SCF MODE
 INFORMATION **** READM2 **** NEW DEFAULT: COULOMB BIPOLAR BUFFER SET TO 32 Mb
 INFORMATION **** READM2 **** NEW DEFAULT: EXCHANGE BIPOLAR BUFFER SET TO 32 Mb
 INFORMATION **** PPAN ****  MULLIKEN POPULATION ANALYSIS AT THE END OF SCF
 *******************************************************************************
 N. OF ATOMS PER CELL        16  COULOMB OVERLAP TOL         (T1) 10**   -6
 NUMBER OF SHELLS            56  COULOMB PENETRATION TOL     (T2) 10**   -6
 NUMBER OF AO               152  EXCHANGE OVERLAP TOL        (T3) 10**   -6
 N. OF ELECTRONS PER CELL    64  EXCHANGE PSEUDO OVP (F(G))  (T4) 10**   -6
 CORE ELECTRONS PER CELL     16  EXCHANGE PSEUDO OVP (P(G))  (T5) 10**  -12
 N. OF SYMMETRY OPERATORS     8  POLE ORDER IN MONO ZONE                  4
 *******************************************************************************
 TYPE OF CALCULATION :  RESTRICTED CLOSED SHELL
 HARTREE-FOCK HAMILTONIAN

 CAPPA:IS1  2;IS2  2;IS3  2; K PTS MONK NET   6; SYMMOPS:K SPACE  16;G SPACE   8

 *******************************************************************************
 MAX NUMBER OF SCF CYCLES      50  CONVERGENCE ON DELTAP        10**-16
 WEIGHT OF F(I) IN F(I+1)      30% CONVERGENCE ON ENERGY        10**- 7
 SHRINK. FACT.(MONKH.)    2  2  2  NUMBER OF K POINTS IN THE IBZ      6
 SHRINKING FACTOR(GILAT NET)    2  NUMBER OF K POINTS(GILAT NET)      6
 *******************************************************************************
 *** K POINTS COORDINATES (OBLIQUE COORDINATES IN UNITS OF IS =  2)
   1-R(  0  0  0)   2-R(  1  0  0)   3-R(  1  1  0)   4-R(  0  0  1)
   5-R(  1  0  1)   6-R(  1  1  1)

 DIRECT LATTICE VECTORS COMPON. (A.U.)     RECIP. LATTICE VECTORS COMPON. (A.U.) 
        X            Y            Z              X            Y            Z
   10.6747172    0.0000000    0.0000000      0.5886044    0.0000000    0.0000000
    0.0000000   10.6747172    0.0000000      0.0000000    0.5886044    0.0000000
    0.0000000    0.0000000    8.8437255      0.0000000    0.0000000    0.7104682

 DISK SPACE FOR EIGENVECTORS (FTN 10)      138624 REALS

 SYMMETRY ADAPTION OF THE BLOCH FUNCTIONS ENABLED
 TTTTTTTTTTTTTTTTTTTTTTTTTTTTTT gordsh1     TELAPSE        0.02 TCPU        0.01

 MATRIX SIZE: P(G)  104172, F(G)   17190, P(G) IRR   10592, F(G) IRR    4123
 MAX G-VECTOR INDEX FOR 1- AND 2-ELECTRON INTEGRALS  81

 TTTTTTTTTTTTTTTTTTTTTTTTTTTTTT INPUT       TELAPSE        0.02 TCPU        0.02

 NEIGHBORS OF THE NON-EQUIVALENT ATOMS

 N = NUMBER OF NEIGHBORS AT DISTANCE R
    ATOM  N     R/ANG      R/AU   NEIGHBORS (ATOM LABELS AND CELL INDICES)
   1 C    1     1.2433     2.3494    3 O    0 0 1
   1 C    2     1.3335     2.5200    5 N    0 1 0    6 N    0 0 0
   1 C    2     2.0182     3.8138    9 H    0 1 0   10 H    0 0 0
   1 C    2     2.0305     3.8372   13 H    0 1 0   14 H    0 0 0
   1 C    2     2.7423     5.1822   11 H    0 1 1   12 H    0 0 1
   1 C    2     3.1646     5.9803   15 H    0 1 0   16 H    0 0 0

   3 O    1     1.2433     2.3494    1 C    0 0-1
   3 O    2     2.0660     3.9041   13 H    0 1 0   14 H    0 0 0
   3 O    2     2.0902     3.9500   11 H    0 1 0   12 H    0 0 0
   3 O    2     2.2511     4.2540    5 N    0 1-1    6 N    0 0-1
   3 O    2     2.4825     4.6912    9 H    0 1-1   10 H    0 0-1
   3 O    2     2.9613     5.5960    5 N    0 1 0    6 N    0 0 0

   5 N    1     0.9962     1.8825   13 H    0 0 0
   5 N    1     0.9966     1.8833    9 H    0 0 0
   5 N    1     1.3335     2.5200    1 C    0-1 0
   5 N    1     2.2511     4.2540    3 O    0-1 1
   5 N    1     2.2685     4.2869    6 N    0-1 0
   5 N    1     2.4597     4.6481   14 H    0-1 0

   9 H    1     0.9966     1.8833    5 N    0 0 0
   9 H    1     1.7265     3.2626   13 H    0 0 0
   9 H    1     2.0182     3.8138    1 C    0-1 0
   9 H    1     2.0902     3.9500    4 O    0 0 0
   9 H    1     2.4825     4.6912    3 O    0-1 1
   9 H    2     2.5281     4.7774   15 H    1 0 0   16 H    0 0 0

  13 H    1     0.9962     1.8825    5 N    0 0 0
  13 H    1     1.7265     3.2626    9 H    0 0 0
  13 H    1     2.0305     3.8372    1 C    0-1 0
  13 H    1     2.0660     3.9041    3 O    0-1 0
  13 H    1     2.2294     4.2130   14 H    0-1 0
  13 H    1     2.4597     4.6481    6 N    0-1 0


 SYMMETRY ALLOWED ELASTIC DISTORTION 1
  0.5773503  0.0000000  0.0000000
  0.0000000  0.5773503  0.0000000
  0.0000000  0.0000000  0.5773503

 SYMMETRY ALLOWED ELASTIC DISTORTION 2
  0.4082483  0.0000000  0.0000000
  0.0000000  0.4082483  0.0000000
  0.0000000  0.0000000 -0.8164966

 SYMMETRY ALLOWED INTERNAL DEGREE(S) OF FREEDOM:   8
 TTTTTTTTTTTTTTTTTTTTTTTTTTTTTT SYMM        TELAPSE        0.04 TCPU        0.04
 TTTTTTTTTTTTTTTTTTTTTTTTTTTTTT INT_SCREEN  TELAPSE        0.05 TCPU        0.04

 *******************************************************************************
 *                             OPTIMIZATION STARTS                             *
 *******************************************************************************
 RECLASIFICATION OF INDICES FOR INTEGRAL CALC ACCORDING TO DIFFERENT CRITERIA:
           FIXDELTE                  FIXDELTX              FIXDELTN
          0.10000000               0.80000000                 10
 DEFAULT MAX NUM OF POINTS  100
 *******************************************************************************

 *******************************************************************************
 COORDINATE AND CELL OPTIMIZATION - POINT    1
 INFORMATION **** EXCBUF **** EXCH. BIPO BUFFER: WORDS USED =      297558
 TTTTTTTTTTTTTTTTTTTTTTTTTTTTTT INT_CALC    TELAPSE        0.10 TCPU        0.09

 *******************************************************************************
 UREA BULK BASE 6-21 + POLARIZATION                                              
 CRYSTAL - SCF - TYPE OF CALCULATION :  RESTRICTED CLOSED SHELL
 *******************************************************************************

 CAPPA:IS1  2;IS2  2;IS3  2; K PTS MONK NET   6; SYMMOPS:K SPACE  16;G SPACE   8

 TTTTTTTTTTTTTTTTTTTTTTTTTTTTTT SDIK        TELAPSE        0.11 TCPU        0.10

 AAAAAAAAAAAAAAAAAAAAAAAAAAAAAAAAAAAAAAAAAAAAAAAAAAAAAAAAAAAAAAAAAAAAAAAAAAAAAAA
         ATOMIC WAVEFUNCTION(S)


 NUCLEAR CHARGE  6.0  SYMMETRY SPECIES            S    P
 N. ELECTRONS    6.0  NUMBER OF PRIMITIVE GTOS    9    3
                      NUMBER OF CONTRACTED GTOS   3    2
                      NUMBER OF CLOSED SHELLS     2    0
                      OPEN SHELL OCCUPATION       0    2

  ZNUC SCFIT  TOTAL HF ENERGY   KINETIC ENERGY   VIRIAL THEOREM ACCURACY
   6.0   9   -3.765831823E+01  3.765320062E+01 -2.000135914E+00  1.5E-06

 NUCLEAR CHARGE  8.0  SYMMETRY SPECIES            S    P
 N. ELECTRONS    8.0  NUMBER OF PRIMITIVE GTOS    9    3
                      NUMBER OF CONTRACTED GTOS   3    2
                      NUMBER OF CLOSED SHELLS     2    0
                      OPEN SHELL OCCUPATION       0    4

  ZNUC SCFIT  TOTAL HF ENERGY   KINETIC ENERGY   VIRIAL THEOREM ACCURACY
   8.0  10   -7.469910437E+01  7.469021188E+01 -2.000119058E+00  4.4E-06

 NUCLEAR CHARGE  7.0  SYMMETRY SPECIES            S    P
 N. ELECTRONS    7.0  NUMBER OF PRIMITIVE GTOS    9    3
                      NUMBER OF CONTRACTED GTOS   3    2
                      NUMBER OF CLOSED SHELLS     2    0
                      OPEN SHELL OCCUPATION       0    3

  ZNUC SCFIT  TOTAL HF ENERGY   KINETIC ENERGY   VIRIAL THEOREM ACCURACY
   7.0   8   -5.434075198E+01  5.432977783E+01 -2.000201992E+00  3.0E-06

 NUCLEAR CHARGE  1.0  SYMMETRY SPECIES            S
 N. ELECTRONS    1.0  NUMBER OF PRIMITIVE GTOS    3
                      NUMBER OF CONTRACTED GTOS   2
                      NUMBER OF CLOSED SHELLS     0
                      OPEN SHELL OCCUPATION       1

  ZNUC SCFIT  TOTAL HF ENERGY   KINETIC ENERGY   VIRIAL THEOREM ACCURACY
   1.0   1   -4.961986360E-01  5.144743151E-01 -1.964476984E+00  0.0E+00

 AAAAAAAAAAAAAAAAAAAAAAAAAAAAAAAAAAAAAAAAAAAAAAAAAAAAAAAAAAAAAAAAAAAAAAAAAAAAAAA

 CHARGE NORMALIZATION FACTOR   1.00000000
 TOTAL ATOMIC CHARGES:
   6.0000000   6.0000000   8.0000000   8.0000000   7.0000000   7.0000000
   7.0000000   7.0000000   1.0000000   1.0000000   1.0000000   1.0000000
   1.0000000   1.0000000   1.0000000   1.0000000
 TTTTTTTTTTTTTTTTTTTTTTTTTTTTTT MOQGAD      TELAPSE        0.13 TCPU        0.11
 TTTTTTTTTTTTTTTTTTTTTTTTTTTTTT SHELLXN     TELAPSE        9.19 TCPU        8.38
 TTTTTTTTTTTTTTTTTTTTTTTTTTTTTT MONMO3      TELAPSE        9.55 TCPU        8.68
 CYC   0 ETOT(AU) -4.502490192856E+02 DETOT -4.50E+02 tst  0.00E+00 PX  1.00E+00
 TTTTTTTTTTTTTTTTTTTTTTTTTTTTTT DIIS        TELAPSE        9.55 TCPU        8.69
 TTTTTTTTTTTTTTTTTTTTTTTTTTTTTT FDIK        TELAPSE        9.58 TCPU        8.71
 INSULATING STATE
 TOP OF VALENCE BANDS -    BAND     32; K    1; EIG -2.7789906E-01 AU
 BOTTOM OF VIRTUAL BANDS - BAND     33; K    1; EIG  8.1828268E-02 AU
 DIRECT ENERGY BAND GAP:   9.7887 eV
 TTTTTTTTTTTTTTTTTTTTTTTTTTTTTT PDIG        TELAPSE        9.59 TCPU        8.73
 CHARGE NORMALIZATION FACTOR   1.00000000
 TOTAL ATOMIC CHARGES:
   4.6055273   4.6055273   8.9837466   8.9837466   7.7679719   7.7679719
   7.7679719   7.7679719   0.7208948   0.7208948   0.7208948   0.7208948
   0.7164963   0.7164963   0.7164963   0.7164963
 TTTTTTTTTTTTTTTTTTTTTTTTTTTTTT MOQGAD      TELAPSE        9.63 TCPU        8.76
 TTTTTTTTTTTTTTTTTTTTTTTTTTTTTT SHELLXN     TELAPSE       18.53 TCPU       17.15
 TTTTTTTTTTTTTTTTTTTTTTTTTTTTTT MONMO3      TELAPSE       19.10 TCPU       17.67
 CYC   1 ETOT(AU) -4.475407276019E+02 DETOT  2.71E+00 tst  0.00E+00 PX  1.00E+00
 TTTTTTTTTTTTTTTTTTTTTTTTTTTTTT DIIS        TELAPSE       19.11 TCPU       17.68
 DIIS TEST: 0.89164E+00 AT SCF   CYCLE   1 - MIX   30 %
 TTTTTTTTTTTTTTTTTTTTTTTTTTTTTT FDIK        TELAPSE       19.14 TCPU       17.70
 INSULATING STATE
 TOP OF VALENCE BANDS -    BAND     32; K    1; EIG -3.5728499E-01 AU
 BOTTOM OF VIRTUAL BANDS - BAND     33; K    1; EIG  1.7152358E-01 AU
 DIRECT ENERGY BAND GAP:  14.3896 eV
 TTTTTTTTTTTTTTTTTTTTTTTTTTTTTT PDIG        TELAPSE       19.17 TCPU       17.73
 CHARGE NORMALIZATION FACTOR   1.00000000
 TOTAL ATOMIC CHARGES:
   4.8838104   4.8838104   8.7250494   8.7250494   7.7334894   7.7334894
   7.7334894   7.7334894   0.7338193   0.7338193   0.7338193   0.7338193
   0.7282613   0.7282613   0.7282613   0.7282613
 TTTTTTTTTTTTTTTTTTTTTTTTTTTTTT MOQGAD      TELAPSE       19.19 TCPU       17.75
 TTTTTTTTTTTTTTTTTTTTTTTTTTTTTT SHELLXN     TELAPSE       27.71 TCPU       25.60
 TTTTTTTTTTTTTTTTTTTTTTTTTTTTTT MONMO3      TELAPSE       27.94 TCPU       25.82
 CYC   2 ETOT(AU) -4.476677068728E+02 DETOT -1.27E-01 tst  2.77E-03 PX  7.46E-02
 TTTTTTTTTTTTTTTTTTTTTTTTTTTTTT DIIS        TELAPSE       27.95 TCPU       25.83
 DIIS TEST: 0.96438E-01 AT SCF   CYCLE   2 - DIIS ACTIVE - HISTORY:     2 CYCLES
 TTTTTTTTTTTTTTTTTTTTTTTTTTTTTT FDIK        TELAPSE       27.97 TCPU       25.85
 INSULATING STATE
 TOP OF VALENCE BANDS -    BAND     32; K    1; EIG -3.8384089E-01 AU
 BOTTOM OF VIRTUAL BANDS - BAND     33; K    1; EIG  2.0136527E-01 AU
 DIRECT ENERGY BAND GAP:  15.9243 eV
 TTTTTTTTTTTTTTTTTTTTTTTTTTTTTT PDIG        TELAPSE       28.00 TCPU       25.88
 CHARGE NORMALIZATION FACTOR   1.00000000
 TOTAL ATOMIC CHARGES:
   4.7868570   4.7868570   8.7996501   8.7996501   7.7341812   7.7341812
   7.7341812   7.7341812   0.7394104   0.7394104   0.7394104   0.7394104
   0.7331549   0.7331549   0.7331549   0.7331549
 TTTTTTTTTTTTTTTTTTTTTTTTTTTTTT MOQGAD      TELAPSE       28.02 TCPU       25.90
 TTTTTTTTTTTTTTTTTTTTTTTTTTTTTT SHELLXN     TELAPSE       33.92 TCPU       31.77
 TTTTTTTTTTTTTTTTTTTTTTTTTTTTTT MONMO3      TELAPSE       34.12 TCPU       31.97
 CYC   3 ETOT(AU) -4.476825365185E+02 DETOT -1.48E-02 tst  3.14E-04 PX  2.80E-02
 TTTTTTTTTTTTTTTTTTTTTTTTTTTTTT DIIS        TELAPSE       34.13 TCPU       31.97
 DIIS TEST: 0.10193E-01 AT SCF   CYCLE   3 - DIIS ACTIVE - HISTORY:     3 CYCLES
 TTTTTTTTTTTTTTTTTTTTTTTTTTTTTT FDIK        TELAPSE       34.14 TCPU       31.98
 INSULATING STATE
 TOP OF VALENCE BANDS -    BAND     32; K    1; EIG -3.8813532E-01 AU
 BOTTOM OF VIRTUAL BANDS - BAND     33; K    1; EIG  2.0711094E-01 AU
 DIRECT ENERGY BAND GAP:  16.1975 eV
 TTTTTTTTTTTTTTTTTTTTTTTTTTTTTT PDIG        TELAPSE       34.15 TCPU       31.99
 CHARGE NORMALIZATION FACTOR   1.00000000
 TOTAL ATOMIC CHARGES:
   4.7843358   4.7843358   8.7741121   8.7741121   7.7500838   7.7500838
   7.7500838   7.7500838   0.7385514   0.7385514   0.7385514   0.7385514
   0.7321409   0.7321409   0.7321409   0.7321409
 TTTTTTTTTTTTTTTTTTTTTTTTTTTTTT MOQGAD      TELAPSE       34.17 TCPU       32.01
 TTTTTTTTTTTTTTTTTTTTTTTTTTTTTT SHELLXN     TELAPSE       39.83 TCPU       37.66
 TTTTTTTTTTTTTTTTTTTTTTTTTTTTTT MONMO3      TELAPSE       40.18 TCPU       38.02
 CYC   4 ETOT(AU) -4.476843031956E+02 DETOT -1.77E-03 tst  7.20E-05 PX  8.36E-03
 TTTTTTTTTTTTTTTTTTTTTTTTTTTTTT DIIS        TELAPSE       40.19 TCPU       38.02
 DIIS TEST: 0.82557E-03 AT SCF   CYCLE   4 - DIIS ACTIVE - HISTORY:     4 CYCLES
 TTTTTTTTTTTTTTTTTTTTTTTTTTTTTT FDIK        TELAPSE       40.21 TCPU       38.04
 INSULATING STATE
 TOP OF VALENCE BANDS -    BAND     32; K    1; EIG -3.8554782E-01 AU
 BOTTOM OF VIRTUAL BANDS - BAND     33; K    1; EIG  2.0771746E-01 AU
 DIRECT ENERGY BAND GAP:  16.1436 eV
 TTTTTTTTTTTTTTTTTTTTTTTTTTTTTT PDIG        TELAPSE       40.22 TCPU       38.05
 CHARGE NORMALIZATION FACTOR   1.00000000
 TOTAL ATOMIC CHARGES:
   4.7886528   4.7886528   8.7789518   8.7789518   7.7429103   7.7429103
   7.7429103   7.7429103   0.7399907   0.7399907   0.7399907   0.7399907
   0.7332967   0.7332967   0.7332967   0.7332967
 TTTTTTTTTTTTTTTTTTTTTTTTTTTTTT MOQGAD      TELAPSE       40.24 TCPU       38.07
 TTTTTTTTTTTTTTTTTTTTTTTTTTTTTT SHELLXN     TELAPSE       45.39 TCPU       43.22
 TTTTTTTTTTTTTTTTTTTTTTTTTTTTTT MONMO3      TELAPSE       45.57 TCPU       43.40
 CYC   5 ETOT(AU) -4.476844343926E+02 DETOT -1.31E-04 tst  3.43E-06 PX  3.46E-03
 TTTTTTTTTTTTTTTTTTTTTTTTTTTTTT DIIS        TELAPSE       45.57 TCPU       43.40
 DIIS TEST: 0.41018E-04 AT SCF   CYCLE   5 - DIIS ACTIVE - HISTORY:     5 CYCLES
 TTTTTTTTTTTTTTTTTTTTTTTTTTTTTT FDIK        TELAPSE       45.58 TCPU       43.41
 INSULATING STATE
 TOP OF VALENCE BANDS -    BAND     32; K    1; EIG -3.8628966E-01 AU
 BOTTOM OF VIRTUAL BANDS - BAND     33; K    1; EIG  2.0759833E-01 AU
 DIRECT ENERGY BAND GAP:  16.1605 eV
 TTTTTTTTTTTTTTTTTTTTTTTTTTTTTT PDIG        TELAPSE       45.59 TCPU       43.42
 CHARGE NORMALIZATION FACTOR   1.00000000
 TOTAL ATOMIC CHARGES:
   4.7882189   4.7882189   8.7777748   8.7777748   7.7434358   7.7434358
   7.7434358   7.7434358   0.7401327   0.7401327   0.7401327   0.7401327
   0.7334346   0.7334346   0.7334346   0.7334346
 TTTTTTTTTTTTTTTTTTTTTTTTTTTTTT MOQGAD      TELAPSE       45.61 TCPU       43.44
 TTTTTTTTTTTTTTTTTTTTTTTTTTTTTT SHELLXN     TELAPSE       50.81 TCPU       48.64
 TTTTTTTTTTTTTTTTTTTTTTTTTTTTTT MONMO3      TELAPSE       50.99 TCPU       48.82
 CYC   6 ETOT(AU) -4.476844534762E+02 DETOT -1.91E-05 tst  1.42E-06 PX  8.17E-04
 TTTTTTTTTTTTTTTTTTTTTTTTTTTTTT DIIS        TELAPSE       51.00 TCPU       48.83
 DIIS TEST: 0.40909E-05 AT SCF   CYCLE   6 - DIIS ACTIVE - HISTORY:     6 CYCLES
 TTTTTTTTTTTTTTTTTTTTTTTTTTTTTT FDIK        TELAPSE       51.01 TCPU       48.84
 INSULATING STATE
 TOP OF VALENCE BANDS -    BAND     32; K    1; EIG -3.8642311E-01 AU
 BOTTOM OF VIRTUAL BANDS - BAND     33; K    1; EIG  2.0759025E-01 AU
 DIRECT ENERGY BAND GAP:  16.1639 eV
 TTTTTTTTTTTTTTTTTTTTTTTTTTTTTT PDIG        TELAPSE       51.02 TCPU       48.85
 CHARGE NORMALIZATION FACTOR   1.00000000
 TOTAL ATOMIC CHARGES:
   4.7882995   4.7882995   8.7776392   8.7776392   7.7432061   7.7432061
   7.7432061   7.7432061   0.7402812   0.7402812   0.7402812   0.7402812
   0.7335433   0.7335433   0.7335433   0.7335433
 TTTTTTTTTTTTTTTTTTTTTTTTTTTTTT MOQGAD      TELAPSE       51.04 TCPU       48.87
 TTTTTTTTTTTTTTTTTTTTTTTTTTTTTT SHELLXN     TELAPSE       56.38 TCPU       54.19
 TTTTTTTTTTTTTTTTTTTTTTTTTTTTTT MONMO3      TELAPSE       56.57 TCPU       54.37
 CYC   7 ETOT(AU) -4.476844561294E+02 DETOT -2.65E-06 tst  3.03E-07 PX  4.13E-04
 TTTTTTTTTTTTTTTTTTTTTTTTTTTTTT DIIS        TELAPSE       56.57 TCPU       54.38
 DIIS TEST: 0.26405E-06 AT SCF   CYCLE   7 - DIIS ACTIVE - HISTORY:     7 CYCLES
 TTTTTTTTTTTTTTTTTTTTTTTTTTTTTT FDIK        TELAPSE       56.58 TCPU       54.39
 INSULATING STATE
 TOP OF VALENCE BANDS -    BAND     32; K    1; EIG -3.8640291E-01 AU
 BOTTOM OF VIRTUAL BANDS - BAND     33; K    1; EIG  2.0760986E-01 AU
 DIRECT ENERGY BAND GAP:  16.1639 eV
 TTTTTTTTTTTTTTTTTTTTTTTTTTTTTT PDIG        TELAPSE       56.59 TCPU       54.40
 CHARGE NORMALIZATION FACTOR   1.00000000
 TOTAL ATOMIC CHARGES:
   4.7882792   4.7882792   8.7775849   8.7775849   7.7431535   7.7431535
   7.7431535   7.7431535   0.7403338   0.7403338   0.7403338   0.7403338
   0.7335807   0.7335807   0.7335807   0.7335807
 TTTTTTTTTTTTTTTTTTTTTTTTTTTTTT MOQGAD      TELAPSE       56.61 TCPU       54.41
 TTTTTTTTTTTTTTTTTTTTTTTTTTTTTT SHELLXN     TELAPSE       70.22 TCPU       66.40
 TTTTTTTTTTTTTTTTTTTTTTTTTTTTTT MONMO3      TELAPSE       70.53 TCPU       66.70
 CYC   8 ETOT(AU) -4.476844561618E+02 DETOT -3.24E-08 tst  2.33E-08 PX  1.03E-04
 TTTTTTTTTTTTTTTTTTTTTTTTTTTTTT DIIS        TELAPSE       70.54 TCPU       66.71
 DIIS TEST: 0.18302E-07 AT SCF   CYCLE   8 - DIIS ACTIVE - HISTORY:     8 CYCLES
 TTTTTTTTTTTTTTTTTTTTTTTTTTTTTT FDIK        TELAPSE       70.56 TCPU       66.72
 INSULATING STATE
 TOP OF VALENCE BANDS -    BAND     32; K    1; EIG -3.8641447E-01 AU
 BOTTOM OF VIRTUAL BANDS - BAND     33; K    1; EIG  2.0760736E-01 AU
 DIRECT ENERGY BAND GAP:  16.1642 eV
 TTTTTTTTTTTTTTTTTTTTTTTTTTTTTT PDIG        TELAPSE       70.58 TCPU       66.74
 CHARGE NORMALIZATION FACTOR   1.00000000
 TOTAL ATOMIC CHARGES:
   4.7882661   4.7882661   8.7775943   8.7775943   7.7431611   7.7431611
   7.7431611   7.7431611   0.7403343   0.7403343   0.7403343   0.7403343
   0.7335745   0.7335745   0.7335745   0.7335745
 TTTTTTTTTTTTTTTTTTTTTTTTTTTTTT MOQGAD      TELAPSE       70.61 TCPU       66.77
 TTTTTTTTTTTTTTTTTTTTTTTTTTTTTT SHELLXN     TELAPSE       80.74 TCPU       75.82
 +++ ENERGIES IN A.U. +++
 ::: EXT EL-POLE                                  -5.7019767628261E+02
 ::: EXT EL-SPHEROPOLE                             6.9119173018425E+00
 ::: BIELET ZONE E-E                               6.6435874405887E+02
 ::: TOTAL E-E                                     1.0107298507811E+02
 ::: TOTAL E-N + N-E                              -9.2494611398993E+02
 ::: TOTAL N-N                                    -7.1215313783375E+01
 ::: KINETIC ENERGY                                4.4740398647169E+02
 ::: TOTAL   ENERGY                               -4.4768445622352E+02
 ::: VIRIAL COEFFICIENT                            9.9968665693975E-01
 TTTTTTTTTTTTTTTTTTTTTTTTTTTTTT MONMO3      TELAPSE       81.26 TCPU       76.32
 CYC   9 ETOT(AU) -4.476844562235E+02 DETOT -6.17E-08 tst  6.40E-10 PX  1.03E-04

 == SCF ENDED - CONVERGENCE ON ENERGY      E(AU) -4.4768445622352E+02 CYCLES   9

 TOTAL ENERGY(HF)(AU)(   9) -4.4768445622352E+02 DE-6.2E-08 tst 6.4E-10 PX 1.0E-04

 *******************************************************************************
 *                             FORCE CALCULATION                               *
 *******************************************************************************

 INFORMATION **** EXCPOG **** EXCH. BIPO BUFFER LENGTH (WORDS) =     1190232
 INFORMATION **** GENPOG **** BIPO BUFFER LENGTH (WORDS) =      276400
 TTTTTTTTTTTTTTTTTTTTTTTTTTTTTT SHELXG      TELAPSE      156.82 TCPU      144.93

 CARTESIAN FORCES IN HARTREE/BOHR (ANALYTICAL)
   ATOM                     X                   Y                   Z
   1   6            -6.620967663018E-12 -2.306786706097E-11  5.125400421480E-05
   2   6            -2.014677313866E-11 -5.830447236121E-11 -5.125400420392E-05
   3   8            -2.339697879883E-12  4.580114065789E-12 -1.000693818280E-04
   4   8            -1.295416551805E-11 -2.073910487788E-11  1.000693818174E-04
   5   7             3.010202575204E-06  3.010218827981E-06 -3.691494416769E-05
   6   7            -3.010188992292E-06 -3.010172738627E-06 -3.691491531033E-05
   7   7             3.010205447573E-06 -3.010175541718E-06  3.691491555768E-05
   8   7            -3.010186123475E-06  3.010216019561E-06  3.691494392033E-05
   9   1             2.483493464034E-05  2.483493466987E-05 -8.440786923303E-06
  10   1            -2.483493012817E-05 -2.483493010064E-05 -8.440786092856E-06
  11   1             2.483493366623E-05 -2.483493093264E-05  8.440785671526E-06
  12   1            -2.483493110272E-05  2.483493384164E-05  8.440787343078E-06
  13   1             2.185622112461E-06  2.185623351580E-06  5.232585396975E-05
  14   1            -2.185620496142E-06 -2.185619258410E-06  5.232585401105E-05
  15   1             2.185621537198E-06 -2.185621607864E-06 -5.232585386672E-05
  16   1            -2.185621070960E-06  2.185621001793E-06 -5.232585411497E-05

 RESULTANT FORCE     3.635980405647E-15  1.207367539280E-15 -2.220446049250E-15

 ATOMIC PART

 SYMMETRY ALLOWED FORCES (ANALYTICAL) (DIRECTION, FORCE)

    1  7.2484108E-05    2 -1.4151948E-04    3  8.5141194E-06    4 -7.3829859E-05
    5  7.0243796E-05    6 -1.6881573E-05    7  6.1818706E-06    8  1.0465171E-04

 CELL PART

 GRADIENT WITH RESPECT TO THE CELL PARAMETER IN HARTREE/BOHR
ORDER: -D/DA1X, -D/DA1Y, -D/DA1Z
       -D/DA2X, -D/DA2Y, -D/DA2Z
       -D/DA3X, -D/DA3Y, -D/DA3Z
 -0.264987889409E-05  0.850343547498E-16  0.499041514504E-11
  0.812778529896E-15 -0.264987889942E-05  0.451646146563E-11
  0.602363484108E-11  0.545221013930E-11  0.152145878018E-03

STRESS TENSOR, IN HARTREE/BOHR^3:
ORDER: 11 12 13
       21 22 23
       31 32 33
  0.280694818080E-07 -0.860955276475E-17 -0.528622785180E-13
 -0.900746928106E-18  0.280694818645E-07 -0.478475635602E-13
 -0.528621770001E-13 -0.478417082490E-13 -0.133520340979E-05

PRESSURE FROM THE STRESS TENSOR,
IN HARTREE/BOHR^3:  0.42635E-06
PRESSURE IN GIGAPASCAL:  0.1254E-01
CONVERSION FACTOR: 1 HARTREE/BOHR^3= 29421 GIGAPASCAL
WHEN USING VALUES FOR BOHR RADIUS AND HARTREE
FROM IUPAC WEBSITE, APRIL 2009
ENTHALPY: -4.4768402656920E+02

 SYMMETRY ALLOWED FORCES (ANALYTICAL) (DIRECTION, FORCE)

    1  6.5876332E-05    2 -1.1111484E-04
 TTTTTTTTTTTTTTTTTTTTTTTTTTTTTT TOTGRA_C    TELAPSE      164.21 TCPU      151.74
 INFORMATION **** optc001 **** GEOMETRY OUTPUT FILE
 CLASSICAL MODEL (SCHLEGEL) USED AS INITIAL HESSIAN MATRIX
 REFERENCE GEOMETRY DEFINED

 MAX GRADIENT      0.000142  THRESHOLD              0.000450 CONVERGED YES
 RMS GRADIENT      0.000080  THRESHOLD              0.000300 CONVERGED YES

 WARNINGWARNINGWARNINGWARNINGWARNINGWARNINGWARNINGWARNINGWARNINGWARNINGWARNING

 CONVERGENCE ON GRADIENTS SATISFIED AFTER THE FIRST OPTIMIZATION CYCLE
 GEOMETRY OPTIMIZATION STOPPED

 WARNINGWARNINGWARNINGWARNINGWARNINGWARNINGWARNINGWARNINGWARNINGWARNINGWARNING


 ******************************************************************
 * OPT END - CONVERGED * E(AU):  -4.476844562235E+02  POINTS    1 *
 ******************************************************************

   BAND GAP:                     16.1642  eV 


 NEIGHBORS OF THE NON-EQUIVALENT ATOMS

 N = NUMBER OF NEIGHBORS AT DISTANCE R
    ATOM  N     R/ANG      R/AU   NEIGHBORS (ATOM LABELS AND CELL INDICES)
   1 C    1     1.2433     2.3494    3 O    0 0 1
   1 C    2     1.3335     2.5200    5 N    0 1 0    6 N    0 0 0
   1 C    2     2.0182     3.8138    9 H    0 1 0   10 H    0 0 0
   1 C    2     2.0305     3.8372   13 H    0 1 0   14 H    0 0 0
   1 C    2     2.7423     5.1822   11 H    0 1 1   12 H    0 0 1
   1 C    2     3.1646     5.9803   15 H    0 1 0   16 H    0 0 0

   3 O    1     1.2433     2.3494    1 C    0 0-1
   3 O    2     2.0660     3.9041   13 H    0 1 0   14 H    0 0 0
   3 O    2     2.0902     3.9500   11 H    0 1 0   12 H    0 0 0
   3 O    2     2.2511     4.2540    5 N    0 1-1    6 N    0 0-1
   3 O    2     2.4825     4.6912    9 H    0 1-1   10 H    0 0-1
   3 O    2     2.9613     5.5960    5 N    0 1 0    6 N    0 0 0

   5 N    1     0.9962     1.8825   13 H    0 0 0
   5 N    1     0.9966     1.8833    9 H    0 0 0
   5 N    1     1.3335     2.5200    1 C    0-1 0
   5 N    1     2.2511     4.2540    3 O    0-1 1
   5 N    1     2.2685     4.2869    6 N    0-1 0
   5 N    1     2.4597     4.6481   14 H    0-1 0

   9 H    1     0.9966     1.8833    5 N    0 0 0
   9 H    1     1.7265     3.2626   13 H    0 0 0
   9 H    1     2.0182     3.8138    1 C    0-1 0
   9 H    1     2.0902     3.9500    4 O    0 0 0
   9 H    1     2.4825     4.6912    3 O    0-1 1
   9 H    2     2.5281     4.7774   15 H    1 0 0   16 H    0 0 0

  13 H    1     0.9962     1.8825    5 N    0 0 0
  13 H    1     1.7265     3.2626    9 H    0 0 0
  13 H    1     2.0305     3.8372    1 C    0-1 0
  13 H    1     2.0660     3.9041    3 O    0-1 0
  13 H    1     2.2294     4.2130   14 H    0-1 0
  13 H    1     2.4597     4.6481    6 N    0-1 0

 TTTTTTTTTTTTTTTTTTTTTTTTTTTTTT AFTER FIRST TELAPSE      164.24 TCPU      151.77
 MMMMMMMMMMMMMMMMMMMMMMMMMMMMMMMMMMMMMMMMMMMMMMMMMMMMMMMMMMMMMMMMMMMMMMMMMMMMMMM
     ALPHA+BETA ELECTRONS
 MULLIKEN POPULATION ANALYSIS - NO. OF ELECTRONS   64.000000

  ATOM    Z CHARGE  A.O. POPULATION

   1 C    6  4.788  1.997  0.405  0.439  0.439  0.586  0.303  0.230  0.230
                    0.002  0.029  0.046  0.046  0.025  0.012
   2 C    6  4.788  1.997  0.405  0.439  0.439  0.586  0.303  0.230  0.230
                    0.002  0.029  0.046  0.046  0.025  0.012
   3 O    8  8.778  1.997  0.408  0.743  0.743  0.615  1.512  0.973  0.973
                    0.783  0.016  0.007  0.007  0.000  0.000
   4 O    8  8.778  1.997  0.408  0.743  0.743  0.615  1.512  0.973  0.973
                    0.783  0.016  0.007  0.007  0.000  0.000
   5 N    7  7.743  1.997  0.358  0.653  0.653  0.585  1.217  0.809  0.809
                    0.639  0.005  0.005  0.005  0.003  0.005
   6 N    7  7.743  1.997  0.358  0.653  0.653  0.585  1.217  0.809  0.809
                    0.639  0.005  0.005  0.005  0.003  0.005
   7 N    7  7.743  1.997  0.358  0.653  0.653  0.585  1.217  0.809  0.809
                    0.639  0.005  0.005  0.005  0.003  0.005
   8 N    7  7.743  1.997  0.358  0.653  0.653  0.585  1.217  0.809  0.809
                    0.639  0.005  0.005  0.005  0.003  0.005
   9 H    1  0.740  0.437  0.266  0.014  0.014  0.008
  10 H    1  0.740  0.437  0.266  0.014  0.014  0.008
  11 H    1  0.740  0.437  0.266  0.014  0.014  0.008
  12 H    1  0.740  0.437  0.266  0.014  0.014  0.008
  13 H    1  0.734  0.438  0.258  0.005  0.005  0.027
  14 H    1  0.734  0.438  0.258  0.005  0.005  0.027
  15 H    1  0.734  0.438  0.258  0.005  0.005  0.027
  16 H    1  0.734  0.438  0.258  0.005  0.005  0.027

  ATOM    Z CHARGE  SHELL POPULATION

   1 C    6  4.788  1.997  1.869  0.765  0.157
   2 C    6  4.788  1.997  1.869  0.765  0.157
   3 O    8  8.778  1.997  2.510  4.240  0.031
   4 O    8  8.778  1.997  2.510  4.240  0.031
   5 N    7  7.743  1.997  2.249  3.473  0.024
   6 N    7  7.743  1.997  2.249  3.473  0.024
   7 N    7  7.743  1.997  2.249  3.473  0.024
   8 N    7  7.743  1.997  2.249  3.473  0.024
   9 H    1  0.740  0.437  0.266  0.037
  10 H    1  0.740  0.437  0.266  0.037
  11 H    1  0.740  0.437  0.266  0.037
  12 H    1  0.740  0.437  0.266  0.037
  13 H    1  0.734  0.438  0.258  0.037
  14 H    1  0.734  0.438  0.258  0.037
  15 H    1  0.734  0.438  0.258  0.037
  16 H    1  0.734  0.438  0.258  0.037

 OVERLAP POPULATION CONDENSED TO ATOMS FOR FIRST   6 NEIGHBORS

 ATOM A   1 C    ATOM B     CELL      R(AB)/AU R(AB)/ANG    OVPOP(AB)
                  3 O    (  0  0  1)     2.349     1.243     0.514
                  5 N    (  0  1  0)     2.520     1.334     0.339
                  9 H    (  0  1  0)     3.814     2.018    -0.029
                 13 H    (  0  1  0)     3.837     2.031    -0.027
                 11 H    (  0  1  1)     5.182     2.742     0.002
                 15 H    (  0  1  0)     5.980     3.165     0.001

 ATOM A   3 O    ATOM B     CELL      R(AB)/AU R(AB)/ANG    OVPOP(AB)
                  1 C    (  0  0 -1)     2.349     1.243     0.514
                 13 H    (  0  1  0)     3.904     2.066     0.034
                 11 H    (  0  1  0)     3.950     2.090     0.038
                  5 N    (  0  1 -1)     4.254     2.251    -0.055
                  9 H    (  0  1 -1)     4.691     2.482     0.002
                  5 N    (  0  1  0)     5.596     2.961    -0.006

 ATOM A   5 N    ATOM B     CELL      R(AB)/AU R(AB)/ANG    OVPOP(AB)
                 13 H    (  0  0  0)     1.883     0.996     0.346
                  9 H    (  0  0  0)     1.883     0.997     0.341
                  1 C    (  0 -1  0)     2.520     1.334     0.339
                  3 O    (  0 -1  1)     4.254     2.251    -0.055
                  6 N    (  0 -1  0)     4.287     2.269    -0.083
                 14 H    (  0 -1  0)     4.648     2.460    -0.002

 ATOM A   9 H    ATOM B     CELL      R(AB)/AU R(AB)/ANG    OVPOP(AB)
                  5 N    (  0  0  0)     1.883     0.997     0.341
                 13 H    (  0  0  0)     3.263     1.727    -0.017
                  1 C    (  0 -1  0)     3.814     2.018    -0.029
                  4 O    (  0  0  0)     3.950     2.090     0.038
                  3 O    (  0 -1  1)     4.691     2.482     0.002
                 15 H    (  1  0  0)     4.777     2.528     0.001

 ATOM A  13 H    ATOM B     CELL      R(AB)/AU R(AB)/ANG    OVPOP(AB)
                  5 N    (  0  0  0)     1.883     0.996     0.346
                  9 H    (  0  0  0)     3.263     1.727    -0.017
                  1 C    (  0 -1  0)     3.837     2.031    -0.027
                  3 O    (  0 -1  0)     3.904     2.066     0.034
                 14 H    (  0 -1  0)     4.213     2.229    -0.003
                  6 N    (  0 -1  0)     4.648     2.460    -0.002
 EIGENVECTORS IN FORTRAN UNIT 10

 FINAL OPTIMIZED GEOMETRY - DIMENSIONALITY OF THE SYSTEM      3
 (NON PERIODIC DIRECTION: LATTICE PARAMETER FORMALLY SET TO 500)
 *******************************************************************************
 LATTICE PARAMETERS (ANGSTROMS AND DEGREES) - BOHR = 0.5291772083 ANGSTROM
 PRIMITIVE CELL - CENTRING CODE 1/0 VOLUME=   149.331491 - DENSITY  1.335 g/cm^3
         A              B              C           ALPHA      BETA       GAMMA 
     5.64881706     5.64881706     4.67989795    90.000000  90.000000  90.000000
 *******************************************************************************
 ATOMS IN THE ASYMMETRIC UNIT    5 - ATOMS IN THE UNIT CELL:   16
     ATOM                 X/A                 Y/B                 Z/C    
 *******************************************************************************
      1 T   6 C     4.426265567204E-13  5.000000000000E-01  3.215610971066E-01
      2 F   6 C    -5.000000000000E-01  4.426098820919E-13 -3.215610971066E-01
      3 T   8 O     4.426265567204E-13  5.000000000000E-01 -4.127810542843E-01
      4 F   8 O    -5.000000000000E-01  4.426098820919E-13  4.127810542843E-01
      5 T   7 N     1.419848069429E-01 -3.580151930571E-01  1.717285671828E-01
      6 F   7 N    -1.419848069429E-01  3.580151930571E-01  1.717285671828E-01
      7 F   7 N    -3.580151930562E-01 -1.419848069421E-01 -1.717285671828E-01
      8 F   7 N     3.580151930579E-01  1.419848069438E-01 -1.717285671828E-01
      9 T   1 H     2.511441202772E-01 -2.488558797228E-01  2.748211331713E-01
     10 F   1 H    -2.511441202772E-01  2.488558797228E-01  2.748211331713E-01
     11 F   1 H    -2.488558797219E-01 -2.511441202763E-01 -2.748211331713E-01
     12 F   1 H     2.488558797237E-01  2.511441202781E-01 -2.748211331713E-01
     13 T   1 H     1.395364188629E-01 -3.604635811371E-01 -4.109873197511E-02
     14 F   1 H    -1.395364188629E-01  3.604635811371E-01 -4.109873197511E-02
     15 F   1 H    -3.604635811362E-01 -1.395364188620E-01  4.109873197511E-02
     16 F   1 H     3.604635811380E-01  1.395364188638E-01  4.109873197511E-02

 T = ATOM BELONGING TO THE ASYMMETRIC UNIT
 INFORMATION **** fort.34 **** GEOMETRY OUTPUT FILE

 DIRECT LATTICE VECTORS CARTESIAN COMPONENTS (ANGSTROM)
          X                    Y                    Z
   0.564881705677E+01   0.000000000000E+00   0.000000000000E+00
   0.000000000000E+00   0.564881705677E+01   0.000000000000E+00
   0.000000000000E+00   0.000000000000E+00   0.467989794735E+01


 CARTESIAN COORDINATES - PRIMITIVE CELL
 *******************************************************************************
 *      ATOM          X(ANGSTROM)         Y(ANGSTROM)         Z(ANGSTROM)
 *******************************************************************************
    1     6 C     2.500316443382E-12  2.824408528385E+00  1.504873118297E+00
    2     6 C     2.824408528385E+00  2.500222251456E-12 -1.504873118297E+00
    3     8 O     2.500316443382E-12  2.824408528385E+00 -1.931773208650E+00
    4     8 O     2.824408528385E+00  2.500222251456E-12  1.931773208650E+00
    5     7 N     8.020461992615E-01 -2.022362329123E+00  8.036721690600E-01
    6     7 N    -8.020461992615E-01  2.022362329123E+00  8.036721690600E-01
    7     7 N    -2.022362329118E+00 -8.020461992565E-01 -8.036721690600E-01
    8     7 N     2.022362329128E+00  8.020461992665E-01 -8.036721690600E-01
    9     1 H     1.418667190329E+00 -1.405741338055E+00  1.286134857017E+00
   10     1 H    -1.418667190329E+00  1.405741338055E+00  1.286134857017E+00
   11     1 H    -1.405741338051E+00 -1.418667190325E+00 -1.286134857017E+00
   12     1 H     1.405741338060E+00  1.418667190335E+00 -1.286134857017E+00
   13     1 H     7.882157029135E-01 -2.036192825471E+00 -1.923378714090E-01
   14     1 H    -7.882157029135E-01  2.036192825471E+00 -1.923378714090E-01
   15     1 H    -2.036192825466E+00 -7.882157029085E-01  1.923378714090E-01
   16     1 H     2.036192825476E+00  7.882157029185E-01  1.923378714090E-01

 ****    8 SYMMOPS - TRANSLATORS IN FRACTIONAL UNITS
 **** MATRICES AND TRANSLATORS IN THE CRYSTALLOGRAPHIC REFERENCE FRAME
   V INV                    ROTATION MATRICES                   TRANSLATORS
   1   1  1.00  0.00  0.00  0.00  1.00  0.00  0.00  0.00  1.00  0.00  0.00  0.00
   2   2 -1.00  0.00  0.00  0.00 -1.00  0.00  0.00  0.00  1.00  0.00  0.00  0.00
   3   3  1.00  0.00  0.00  0.00 -1.00  0.00  0.00  0.00 -1.00  0.50  0.50  0.00
   4   4 -1.00  0.00  0.00  0.00  1.00  0.00  0.00  0.00 -1.00  0.50  0.50  0.00
   5   5  0.00  1.00  0.00  1.00  0.00  0.00  0.00  0.00  1.00  0.50  0.50  0.00
   6   6  0.00 -1.00  0.00 -1.00  0.00  0.00  0.00  0.00  1.00  0.50  0.50  0.00
   7   8  0.00 -1.00  0.00  1.00  0.00  0.00  0.00  0.00 -1.00  0.00  0.00  0.00
   8   7  0.00  1.00  0.00 -1.00  0.00  0.00  0.00  0.00 -1.00  0.00  0.00  0.00
 TTTTTTTTTTTTTTTTTTTTTTTTTTTTTT END         TELAPSE      164.33 TCPU      151.85
 EEEEEEEEEE TERMINATION  DATE 24 09 2020 TIME 14:34:47.1
