
         
 *******************************************************************************
 *                                                                             *
 *                               CRYSTAL17                                     *
 *                      public : 1.0.2 - March 1st, 2018                       *
 *                       HTTP://WWW.CRYSTAL.UNITO.IT                           *
 *                                                                             *
 *                              MAIN AUTHORS                                   *
 *                                                                             *
 *  R. DOVESI(1,11), V.R. SAUNDERS(2), C. ROETTI(1,11), R. ORLANDO(1,11),      *
 *  C.M. ZICOVICH-WILSON(1,3), F. PASCALE(4), B. CIVALLERI(1,11),              *
 *  K. DOLL(5), N.M. HARRISON(2,6), I.J. BUSH(7), Ph. D'ARCO(8),               *
 *  M. LLUNELL(9), M. CAUSA'(10), Y. NOEL(8), L. MASCHIO(1,11), A. ERBA(1,11)  *
 *  M. RE'RAT(14), S. CASASSA(1,11)                                            *
 *                                                                             *
 *        CONTRIBUTIONS TO THE CODE HAVE ALSO BEEN GIVEN BY                    *
 *                                                                             *
 *  M. FERRABONE(1,11), M. DE LA PIERRE(1,11), M. FERRERO(1,11),               *
 *  J. BAIMA(1,11), E. ALBANESE(1,11), M.F. PEINTINGER(12), R. BAST(13),       *
 *  B. KIRTMAN(15), V. LACIVITA(1,11), R. DEMICHELIS(1,16)                     *
 *  G. BRANDEBURG(17), S. SALUSTRO(1,11), G. SANSONE(1,11)                     *
 *  M.T. RUGGIERO(18)                                                          *
 *                                                                             *
 * (1) THEORETICAL CHEMISTRY GROUP - UNIVERSITA' DI TORINO - TORINO (ITALY)    *
 * (2) COMPUTATIONAL SCIENCE & ENGINEERING DEPARTMENT - STFC DARESBURY (UK)    *
 * (3) UNIVERSIDAD AUTONOMA DEL ESTADO DE MORELOS - CUERNAVACA (MEXICO)        *
 * (4) UNIVERSITE' DE LORRAINE - NANCY (FRANCE)                                *
 * (5) UNIVERSITAET STUTTGART- STUTTGART (GERMANY)                             *
 * (6) IMPERIAL COLLEGE - LONDON (UK)                                          *
 * (7) OXFORD E-RESEARCH CENTRE - OXFORD (UK)                                  *
 * (8) UPMC - SORBONNE UNIVERSITES - PARIS (FRANCE)                            *
 * (9) UNIVERSIDAD DE BARCELONA - BARCELONA (SPAIN)                            *
 *(10) UNIVERSITA' DI NAPOLI "FEDERICO II" - NAPOLI (ITALY)                    *
 *(11) NIS - NANOSTRUCTURED INTERFACES AND SURFACES - TORINO (ITALY)           *
 *(12) MPI FUER CHEMISCHE ENERGIEKONVERSION - MUELHEIM AN DER RUHR (GERMANY)   *
 *(13) UNIVERSITY OF TROMSO - TROMSO (NORWAY)                                  *
 *(14) UNIVERSITE' DE PAU ET DES PAYS DE L'ADOUR - PAU (FRANCE)                *
 *(15) UNIVERSITY OF CALIFORNIA SANTA BARBARA - SANTA BARBARA (USA)            *
 *(16) CURTIN UNIVERSITY - PERTH (AUSTRALIA)                                   *
 *(17) UNIVERSITY COLLEGE LONDON - LONDON (UK)                                 *
 *(18) CAMBRIDGE UNIVERSITY - CAMBRIDGE (UK)                                   *
 *                                                                             *
 *******************************************************************************
 EEEEEEEEEE STARTING  DATE 24 09 2020 TIME 15:20:28.7
 UREA BULK BASE 6-21 + POLARIZATION                                              

 CRYSTAL CALCULATION
 (INPUT ACCORDING TO THE INTERNATIONAL TABLES FOR X-RAY CRYSTALLOGRAPHY)
 CRYSTAL FAMILY                       :  TETRAGONAL  
 CRYSTAL CLASS  (GROTH - 1921)        :  TETRAGONAL SCALENOHEDRAL             

 SPACE GROUP (NONCENTROSYMMETRIC)     :  P -4 21 M       

 LATTICE PARAMETERS  (ANGSTROMS AND DEGREES) - CONVENTIONAL CELL
        A           B           C        ALPHA        BETA       GAMMA
     5.56500     5.56500     4.68400    90.00000    90.00000    90.00000


 NUMBER OF IRREDUCIBLE ATOMS IN THE CONVENTIONAL CELL:    5

 INPUT COORDINATES

 ATOM AT. N.              COORDINATES
   1   6     0.000000000000E+00  5.000000000000E-01  3.260000000000E-01
   2   8     0.000000000000E+00  5.000000000000E-01  5.953000000000E-01
   3   7     1.459000000000E-01  6.459000000000E-01  1.766000000000E-01
   4   1     2.575000000000E-01  7.575000000000E-01  2.827000000000E-01
   5   1     1.441000000000E-01  6.441000000000E-01 -3.800000000000E-02

 *******************************************************************************

 << INFORMATION >>: FROM NOW ON, ALL COORDINATES REFER TO THE PRIMITIVE CELL

 *******************************************************************************

 LATTICE PARAMETERS  (ANGSTROMS AND DEGREES) - PRIMITIVE CELL
       A          B          C        ALPHA      BETA     GAMMA        VOLUME
    5.56500    5.56500    4.68400    90.00000  90.00000  90.00000    145.059850

 COORDINATES OF THE EQUIVALENT ATOMS (FRACTIONAL UNITS)

 N. ATOM EQUIV AT. N.          X                  Y                  Z

   1   1   1    6 C     0.00000000000E+00 -5.00000000000E-01  3.26000000000E-01
   2   1   2    6 C    -5.00000000000E-01  0.00000000000E+00 -3.26000000000E-01

   3   2   1    8 O     0.00000000000E+00 -5.00000000000E-01 -4.04700000000E-01
   4   2   2    8 O    -5.00000000000E-01  0.00000000000E+00  4.04700000000E-01

   5   3   1    7 N     1.45900000000E-01 -3.54100000000E-01  1.76600000000E-01
   6   3   2    7 N    -1.45900000000E-01  3.54100000000E-01  1.76600000000E-01
   7   3   3    7 N    -3.54100000000E-01 -1.45900000000E-01 -1.76600000000E-01
   8   3   4    7 N     3.54100000000E-01  1.45900000000E-01 -1.76600000000E-01

   9   4   1    1 H     2.57500000000E-01 -2.42500000000E-01  2.82700000000E-01
  10   4   2    1 H    -2.57500000000E-01  2.42500000000E-01  2.82700000000E-01
  11   4   3    1 H    -2.42500000000E-01 -2.57500000000E-01 -2.82700000000E-01
  12   4   4    1 H     2.42500000000E-01  2.57500000000E-01 -2.82700000000E-01

  13   5   1    1 H     1.44100000000E-01 -3.55900000000E-01 -3.80000000000E-02
  14   5   2    1 H    -1.44100000000E-01  3.55900000000E-01 -3.80000000000E-02
  15   5   3    1 H    -3.55900000000E-01 -1.44100000000E-01  3.80000000000E-02
  16   5   4    1 H     3.55900000000E-01  1.44100000000E-01  3.80000000000E-02

 NUMBER OF SYMMETRY OPERATORS         :    8
 *******************************************************************************
 * GEOMETRY EDITING - INPUT COORDINATES ARE GIVEN IN ANGSTROM         
 *******************************************************************************

 GEOMETRY NOW FULLY CONSISTENT WITH THE GROUP
 INFORMATION **** NEW DEFAULT **** FINALRUN 4 FOR GEOMETRY OPTIMIZATIONS
 INFORMATION **** NEW DEFAULT **** OPTGEOM OPTIMIZES BOTH ATOMIC COORDINATES AND CELL PARAMETERS
 INFORMATION **** NEW DEFAULT **** TOL. ON ATOMIC DISP TO REDEFINE REF. GEOMETRY: 0.8 Angs
 INFORMATION **** NEW DEFAULT **** N POINTS TO REDEFINE REF. GEOMETRY: N OF OPT DEGS OF FREEDOM
 INFORMATION **** NEW DEFAULT **** TOL. ON ENERGY TO REDEFINE REF. GEOMETRY: 10**-3*(5*N. ATOMS)

 IMPORTANT INFORMATION:
 THE COORDINATE SYSTEM ADOPTED IN THE OPTIMIZATION IS NOT IN
 GENERAL HOMOGENEOUS UNITS. FOR THIS REASON THE GRADIENT AND 
 HESSIAN MATRIX IN TERMS OF THIS SYSTEM ARE GIVEN WITHOUT
 UNITS. FOR MORE DETAILS SEE THE MANUAL.

 *******************************************************************************
 COMBINED CELL/ATOM OPTIMIZATION CONTROL

 INITIAL TRUST RADIUS         0.50000 MAXIMUM TRUST RADIUS               4.00000
 MAXIMUM GRADIENT COMPONENT   0.00045 MAXIMUM DISPLACEMENT COMPONENT     0.00180
 R.M.S. OF GRADIENT COMPONENT 0.00030 R.M.S. OF DISPLACEMENT COMPONENTS  0.00120
 THRESHOLD ON ENERGY CHANGE 0.100E-06 EXTRAPOLATING POLYNOMIAL ORDER           2
 MAXIMUM ALLOWED NUMBER OF STEPS   -1 SORTING OF ENERGY POINTS:               NO
 ANALYTICAL  GRADIENT                 HESSIAN UPDATING                      BFGS
 STEP SIZE NUMERICAL GRADIENT 0.00100
 INITIAL HESSIAN MATRIX: SCHLEGEL MODEL 2
 *******************************************************************************


 GCALCO - MAX INDICES DIRECT LATTICE VECTOR    14    14    16
 NO.OF VECTORS CREATED 6999 STARS  525 RMAX   117.81283 BOHR

 GEOMETRY FOR WAVE FUNCTION - DIMENSIONALITY OF THE SYSTEM    3
 (NON PERIODIC DIRECTION: LATTICE PARAMETER FORMALLY SET TO 500)
 *******************************************************************************
 LATTICE PARAMETERS (ANGSTROMS AND DEGREES) - BOHR = 0.5291772083 ANGSTROM
 PRIMITIVE CELL - CENTRING CODE 1/0 VOLUME=   145.059850 - DENSITY  1.374 g/cm^3
         A              B              C           ALPHA      BETA       GAMMA 
     5.56500000     5.56500000     4.68400000    90.000000  90.000000  90.000000
 *******************************************************************************
 ATOMS IN THE ASYMMETRIC UNIT    5 - ATOMS IN THE UNIT CELL:   16
     ATOM                 X/A                 Y/B                 Z/C    
 *******************************************************************************
      1 T   6 C     0.000000000000E+00  5.000000000000E-01  3.260000000000E-01
      2 F   6 C    -5.000000000000E-01  0.000000000000E+00 -3.260000000000E-01
      3 T   8 O     0.000000000000E+00  5.000000000000E-01 -4.047000000000E-01
      4 F   8 O    -5.000000000000E-01  0.000000000000E+00  4.047000000000E-01
      5 T   7 N     1.459000000000E-01 -3.541000000000E-01  1.766000000000E-01
      6 F   7 N    -1.459000000000E-01  3.541000000000E-01  1.766000000000E-01
      7 F   7 N    -3.541000000000E-01 -1.459000000000E-01 -1.766000000000E-01
      8 F   7 N     3.541000000000E-01  1.459000000000E-01 -1.766000000000E-01
      9 T   1 H     2.575000000000E-01 -2.425000000000E-01  2.827000000000E-01
     10 F   1 H    -2.575000000000E-01  2.425000000000E-01  2.827000000000E-01
     11 F   1 H    -2.425000000000E-01 -2.575000000000E-01 -2.827000000000E-01
     12 F   1 H     2.425000000000E-01  2.575000000000E-01 -2.827000000000E-01
     13 T   1 H     1.441000000000E-01 -3.559000000000E-01 -3.800000000000E-02
     14 F   1 H    -1.441000000000E-01  3.559000000000E-01 -3.800000000000E-02
     15 F   1 H    -3.559000000000E-01 -1.441000000000E-01  3.800000000000E-02
     16 F   1 H     3.559000000000E-01  1.441000000000E-01  3.800000000000E-02

 T = ATOM BELONGING TO THE ASYMMETRIC UNIT

 ****    8 SYMMOPS - TRANSLATORS IN FRACTIONAL UNITS
 **** MATRICES AND TRANSLATORS IN THE CRYSTALLOGRAPHIC REFERENCE FRAME
   V INV                    ROTATION MATRICES                   TRANSLATORS
   1   1  1.00  0.00  0.00  0.00  1.00  0.00  0.00  0.00  1.00  0.00  0.00  0.00
   2   2 -1.00  0.00  0.00  0.00 -1.00  0.00  0.00  0.00  1.00  0.00  0.00  0.00
   3   3  1.00  0.00  0.00  0.00 -1.00  0.00  0.00  0.00 -1.00  0.50  0.50  0.00
   4   4 -1.00  0.00  0.00  0.00  1.00  0.00  0.00  0.00 -1.00  0.50  0.50  0.00
   5   5  0.00  1.00  0.00  1.00  0.00  0.00  0.00  0.00  1.00  0.50  0.50  0.00
   6   6  0.00 -1.00  0.00 -1.00  0.00  0.00  0.00  0.00  1.00  0.50  0.50  0.00
   7   8  0.00 -1.00  0.00  1.00  0.00  0.00  0.00  0.00 -1.00  0.00  0.00  0.00
   8   7  0.00  1.00  0.00 -1.00  0.00  0.00  0.00  0.00 -1.00  0.00  0.00  0.00

 DIRECT LATTICE VECTORS CARTESIAN COMPONENTS (ANGSTROM)
          X                    Y                    Z
   0.556500000000E+01   0.000000000000E+00   0.000000000000E+00
   0.000000000000E+00   0.556500000000E+01   0.000000000000E+00
   0.000000000000E+00   0.000000000000E+00   0.468400000000E+01


 CARTESIAN COORDINATES - PRIMITIVE CELL
 *******************************************************************************
 *      ATOM          X(ANGSTROM)         Y(ANGSTROM)         Z(ANGSTROM)
 *******************************************************************************
    1     6 C     0.000000000000E+00  2.782500000000E+00  1.526984000000E+00
    2     6 C     2.782500000000E+00  0.000000000000E+00 -1.526984000000E+00
    3     8 O     0.000000000000E+00  2.782500000000E+00 -1.895614800000E+00
    4     8 O     2.782500000000E+00  0.000000000000E+00  1.895614800000E+00
    5     7 N     8.119335000000E-01 -1.970566500000E+00  8.271944000000E-01
    6     7 N    -8.119335000000E-01  1.970566500000E+00  8.271944000000E-01
    7     7 N    -1.970566500000E+00 -8.119335000000E-01 -8.271944000000E-01
    8     7 N     1.970566500000E+00  8.119335000000E-01 -8.271944000000E-01
    9     1 H     1.432987500000E+00 -1.349512500000E+00  1.324166800000E+00
   10     1 H    -1.432987500000E+00  1.349512500000E+00  1.324166800000E+00
   11     1 H    -1.349512500000E+00 -1.432987500000E+00 -1.324166800000E+00
   12     1 H     1.349512500000E+00  1.432987500000E+00 -1.324166800000E+00
   13     1 H     8.019165000000E-01 -1.980583500000E+00 -1.779920000000E-01
   14     1 H    -8.019165000000E-01  1.980583500000E+00 -1.779920000000E-01
   15     1 H    -1.980583500000E+00 -8.019165000000E-01  1.779920000000E-01
   16     1 H     1.980583500000E+00  8.019165000000E-01  1.779920000000E-01

 *******************************************************************************
 LOCAL ATOMIC FUNCTIONS BASIS SET
 *******************************************************************************
   ATOM   X(AU)   Y(AU)   Z(AU)  N. TYPE  EXPONENT  S COEF   P COEF   D/F/G COEF
 *******************************************************************************
   1 C    0.000   5.258   2.886
                                  1 S  
                                         3.048E+03 1.826E-03 0.000E+00 0.000E+00
                                         4.564E+02 1.406E-02 0.000E+00 0.000E+00
                                         1.037E+02 6.876E-02 0.000E+00 0.000E+00
                                         2.923E+01 2.304E-01 0.000E+00 0.000E+00
                                         9.349E+00 4.685E-01 0.000E+00 0.000E+00
                                         3.189E+00 3.628E-01 0.000E+00 0.000E+00
                           2-     5 SP 
                                         3.665E+00-3.959E-01 2.365E-01 0.000E+00
                                         7.705E-01 1.216E+00 8.606E-01 0.000E+00
                           6-     9 SP 
                                         1.959E-01 1.000E+00 1.000E+00 0.000E+00
                          10-    14 D  
                                         8.000E-01 0.000E+00 0.000E+00 1.000E+00
   2 C    5.258   0.000  -2.886
   3 O    0.000   5.258  -3.582
                                 29 S  
                                         5.472E+03 1.832E-03 0.000E+00 0.000E+00
                                         8.178E+02 1.410E-02 0.000E+00 0.000E+00
                                         1.864E+02 6.863E-02 0.000E+00 0.000E+00
                                         5.302E+01 2.294E-01 0.000E+00 0.000E+00
                                         1.718E+01 4.664E-01 0.000E+00 0.000E+00
                                         5.912E+00 3.642E-01 0.000E+00 0.000E+00
                          30-    33 SP 
                                         7.403E+00-4.045E-01 2.446E-01 0.000E+00
                                         1.576E+00 1.222E+00 8.540E-01 0.000E+00
                          34-    37 SP 
                                         3.737E-01 1.000E+00 1.000E+00 0.000E+00
                          38-    42 D  
                                         8.000E-01 0.000E+00 0.000E+00 1.000E+00
   4 O    5.258   0.000   3.582
   5 N    1.534  -3.724   1.563
                                 57 S  
                                         4.150E+03 1.845E-03 0.000E+00 0.000E+00
                                         6.201E+02 1.416E-02 0.000E+00 0.000E+00
                                         1.417E+02 6.863E-02 0.000E+00 0.000E+00
                                         4.034E+01 2.286E-01 0.000E+00 0.000E+00
                                         1.303E+01 4.662E-01 0.000E+00 0.000E+00
                                         4.470E+00 3.657E-01 0.000E+00 0.000E+00
                          58-    61 SP 
                                         5.425E+00-4.133E-01 2.380E-01 0.000E+00
                                         1.149E+00 1.224E+00 8.590E-01 0.000E+00
                          62-    65 SP 
                                         2.832E-01 1.000E+00 1.000E+00 0.000E+00
                          66-    70 D  
                                         8.000E-01 0.000E+00 0.000E+00 1.000E+00
   6 N   -1.534   3.724   1.563
   7 N   -3.724  -1.534  -1.563
   8 N    3.724   1.534  -1.563
   9 H    2.708  -2.550   2.502
                                113 S  
                                         5.447E+00 1.563E-01 0.000E+00 0.000E+00
                                         8.245E-01 9.047E-01 0.000E+00 0.000E+00
                                114 S  
                                         1.832E-01 1.000E+00 0.000E+00 0.000E+00
                         115-   117 P  
                                         1.100E+00 0.000E+00 1.000E+00 0.000E+00
  10 H   -2.708   2.550   2.502
  11 H   -2.550  -2.708  -2.502
  12 H    2.550   2.708  -2.502
  13 H    1.515  -3.743  -0.336
  14 H   -1.515   3.743  -0.336
  15 H   -3.743  -1.515   0.336
  16 H    3.743   1.515   0.336
 INFORMATION **** SET_MPP **** PCRYSTAL CALCULATION
 INFORMATION **** READM2 **** NEW DEFAULT: FOCK/KS MATRIX MIXING SET TO 30 %
 INFORMATION **** READM2 **** NEW DEFAULT: FULL DIRECT SCF MODE
 INFORMATION **** READM2 **** NEW DEFAULT: COULOMB BIPOLAR BUFFER SET TO 32 Mb
 INFORMATION **** READM2 **** NEW DEFAULT: EXCHANGE BIPOLAR BUFFER SET TO 32 Mb

 *******************************************************************************
 NEW DEFAULT: DFT INTEGRATION GRID INCREASED TO XLGRID
 NEW DEFAULT: DIIS ACCELERATOR ACTIVE
 USE KEYWORD NODIIS TO TURN IT OFF
 *******************************************************************************

 INFORMATION **** PPAN ****  MULLIKEN POPULATION ANALYSIS AT THE END OF SCF
 *******************************************************************************
 N. OF ATOMS PER CELL        16  COULOMB OVERLAP TOL         (T1) 10**   -6
 NUMBER OF SHELLS            56  COULOMB PENETRATION TOL     (T2) 10**   -6
 NUMBER OF AO               152  EXCHANGE OVERLAP TOL        (T3) 10**   -6
 N. OF ELECTRONS PER CELL    64  EXCHANGE PSEUDO OVP (F(G))  (T4) 10**   -6
 CORE ELECTRONS PER CELL     16  EXCHANGE PSEUDO OVP (P(G))  (T5) 10**  -12
 N. OF SYMMETRY OPERATORS     8  POLE ORDER IN MONO ZONE                  4
 *******************************************************************************
 TYPE OF CALCULATION :  RESTRICTED CLOSED SHELL
 KOHN-SHAM HAMILTONIAN

 (EXCHANGE)[CORRELATION] FUNCTIONAL:(BECKE 88)[LEE-YANG-PARR]

 NON-LOCAL WEIGHTING FACTOR (EXCHANGE) =           0.9000
 NON-LOCAL WEIGHTING FACTOR [CORRELATION] =        0.8100

 HYBRID EXCHANGE - PERCENTAGE OF FOCK EXCHANGE    20.0000

 CAPPA:IS1  2;IS2  2;IS3  2; K PTS MONK NET   6; SYMMOPS:K SPACE  16;G SPACE   8

 *******************************************************************************
 MAX NUMBER OF SCF CYCLES      50  CONVERGENCE ON DELTAP        10**-16
 WEIGHT OF F(I) IN F(I+1)      30% CONVERGENCE ON ENERGY        10**- 7
 SHRINK. FACT.(MONKH.)    2  2  2  NUMBER OF K POINTS IN THE IBZ      6
 SHRINKING FACTOR(GILAT NET)    2  NUMBER OF K POINTS(GILAT NET)      6
 *******************************************************************************
 *** K POINTS COORDINATES (OBLIQUE COORDINATES IN UNITS OF IS =  2)
   1-R(  0  0  0)   2-R(  1  0  0)   3-R(  1  1  0)   4-R(  0  0  1)
   5-R(  1  0  1)   6-R(  1  1  1)

 DIRECT LATTICE VECTORS COMPON. (A.U.)     RECIP. LATTICE VECTORS COMPON. (A.U.) 
        X            Y            Z              X            Y            Z
   10.5163259    0.0000000    0.0000000      0.5974696    0.0000000    0.0000000
    0.0000000   10.5163259    0.0000000      0.0000000    0.5974696    0.0000000
    0.0000000    0.0000000    8.8514772      0.0000000    0.0000000    0.7098460

 DISK SPACE FOR EIGENVECTORS (FTN 10)      138624 REALS

 SYMMETRY ADAPTION OF THE BLOCH FUNCTIONS ENABLED
 TTTTTTTTTTTTTTTTTTTTTTTTTTTTTT gordsh1     TELAPSE        0.01 TCPU        0.01

 MATRIX SIZE: P(G)  108364, F(G)   18098, P(G) IRR   10907, F(G) IRR    4245
 MAX G-VECTOR INDEX FOR 1- AND 2-ELECTRON INTEGRALS  81

 TTTTTTTTTTTTTTTTTTTTTTTTTTTTTT INPUT       TELAPSE        0.01 TCPU        0.01

 NEIGHBORS OF THE NON-EQUIVALENT ATOMS

 N = NUMBER OF NEIGHBORS AT DISTANCE R
    ATOM  N     R/ANG      R/AU   NEIGHBORS (ATOM LABELS AND CELL INDICES)
   1 C    1     1.2614     2.3837    3 O    0 0 1
   1 C    2     1.3447     2.5411    5 N    0 1 0    6 N    0 0 0
   1 C    2     2.0367     3.8488    9 H    0 1 0   10 H    0 0 0
   1 C    2     2.0477     3.8696   13 H    0 1 0   14 H    0 0 0
   1 C    2     2.6461     5.0004   11 H    0 1 1   12 H    0 0 1
   1 C    2     3.1089     5.8750   15 H    0 1 0   16 H    0 0 0

   3 O    1     1.2614     2.3837    1 C    0 0-1
   3 O    2     1.9922     3.7647   11 H    0 1 0   12 H    0 0 0
   3 O    2     2.0582     3.8895   13 H    0 1 0   14 H    0 0 0
   3 O    2     2.2726     4.2946    5 N    0 1-1    6 N    0 0-1
   3 O    2     2.5002     4.7246    9 H    0 1-1   10 H    0 0-1
   3 O    2     2.9550     5.5842    5 N    0 1 0    6 N    0 0 0

   5 N    1     1.0053     1.8997   13 H    0 0 0
   5 N    1     1.0092     1.9070    9 H    0 0 0
   5 N    1     1.3447     2.5411    1 C    0-1 0
   5 N    1     2.2726     4.2946    3 O    0-1 1
   5 N    1     2.2965     4.3397    6 N    0-1 0
   5 N    1     2.4939     4.7127   14 H    0-1 0

   9 H    1     1.0092     1.9070    5 N    0 0 0
   9 H    1     1.7473     3.3019   13 H    0 0 0
   9 H    1     1.9922     3.7647    4 O    0 0 0
   9 H    1     2.0367     3.8488    1 C    0-1 0
   9 H    2     2.4984     4.7214   15 H    1 0 0   16 H    0 0 0
   9 H    1     2.5002     4.7246    3 O    0-1 1

  13 H    1     1.0053     1.8997    5 N    0 0 0
  13 H    1     1.7473     3.3019    9 H    0 0 0
  13 H    1     2.0477     3.8696    1 C    0-1 0
  13 H    1     2.0582     3.8895    3 O    0-1 0
  13 H    1     2.2682     4.2862   14 H    0-1 0
  13 H    1     2.4939     4.7127    6 N    0-1 0


 SYMMETRY ALLOWED ELASTIC DISTORTION 1
  0.5773503  0.0000000  0.0000000
  0.0000000  0.5773503  0.0000000
  0.0000000  0.0000000  0.5773503

 SYMMETRY ALLOWED ELASTIC DISTORTION 2
  0.4082483  0.0000000  0.0000000
  0.0000000  0.4082483  0.0000000
  0.0000000  0.0000000 -0.8164966

 SYMMETRY ALLOWED INTERNAL DEGREE(S) OF FREEDOM:   8
 TTTTTTTTTTTTTTTTTTTTTTTTTTTTTT SYMM        TELAPSE        0.01 TCPU        0.01
 TTTTTTTTTTTTTTTTTTTTTTTTTTTTTT INT_SCREEN  TELAPSE        0.02 TCPU        0.02

 *******************************************************************************
 *                             OPTIMIZATION STARTS                             *
 *******************************************************************************
 RECLASIFICATION OF INDICES FOR INTEGRAL CALC ACCORDING TO DIFFERENT CRITERIA:
           FIXDELTE                  FIXDELTX              FIXDELTN
          0.10000000               0.80000000                 10
 DEFAULT MAX NUM OF POINTS  100
 *******************************************************************************

 *******************************************************************************
 COORDINATE AND CELL OPTIMIZATION - POINT    1
 INFORMATION **** EXCBUF **** EXCH. BIPO BUFFER: WORDS USED =      313479

 DFT PARAMETERS

     ATOM       ELECTRONS   NET CHARGE   R(ANGSTROM)
   1   6  C       6.0000      0.0000     0.77000000
   3   8  O       8.0000      0.0000     0.74000000
   5   7  N       7.0000      0.0000     0.74000000
   9   1  H       1.0000      0.0000     1.11000000

 SIZE OF GRID=      52659
 TTTTTTTTTTTTTTTTTTTTTTTTTTTTTT MAKE_GRID2  TELAPSE        8.10 TCPU        7.33
 BECKE WEIGHT FUNCTION
 RADSAFE =     2.00
 TOLERANCES - DENSITY:10**- 6; POTENTIAL:10**- 9; GRID WGT:10**-14

 RADIAL INTEGRATION  - INTERVALS (POINTS,UPPER LIMIT):            1( 75,  4.0*R)

 ANGULAR INTEGRATION - INTERVALS (ACCURACY LEVEL [N. POINTS] UPPER LIMIT):
  1(  4[  86]   0.2)  2(  8[ 194]   0.5)  3( 12[ 350]   0.9)  4( 16[ 974]   3.5)
  5( 12[ 350]9999.0)
 TTTTTTTTTTTTTTTTTTTTTTTTTTTTTT INT_CALC    TELAPSE        8.15 TCPU        7.37

 *******************************************************************************
 UREA BULK BASE 6-21 + POLARIZATION                                              
 CRYSTAL - SCF - TYPE OF CALCULATION :  RESTRICTED CLOSED SHELL
 *******************************************************************************

 CAPPA:IS1  2;IS2  2;IS3  2; K PTS MONK NET   6; SYMMOPS:K SPACE  16;G SPACE   8

 TTTTTTTTTTTTTTTTTTTTTTTTTTTTTT SDIK        TELAPSE        8.17 TCPU        7.40

 AAAAAAAAAAAAAAAAAAAAAAAAAAAAAAAAAAAAAAAAAAAAAAAAAAAAAAAAAAAAAAAAAAAAAAAAAAAAAAA
         ATOMIC WAVEFUNCTION(S)


 NUCLEAR CHARGE  6.0  SYMMETRY SPECIES            S    P
 N. ELECTRONS    6.0  NUMBER OF PRIMITIVE GTOS    9    3
                      NUMBER OF CONTRACTED GTOS   3    2
                      NUMBER OF CLOSED SHELLS     2    0
                      OPEN SHELL OCCUPATION       0    2

  ZNUC SCFIT  TOTAL HF ENERGY   KINETIC ENERGY   VIRIAL THEOREM ACCURACY
   6.0   9   -3.765831823E+01  3.765320062E+01 -2.000135914E+00  1.5E-06

 NUCLEAR CHARGE  8.0  SYMMETRY SPECIES            S    P
 N. ELECTRONS    8.0  NUMBER OF PRIMITIVE GTOS    9    3
                      NUMBER OF CONTRACTED GTOS   3    2
                      NUMBER OF CLOSED SHELLS     2    0
                      OPEN SHELL OCCUPATION       0    4

  ZNUC SCFIT  TOTAL HF ENERGY   KINETIC ENERGY   VIRIAL THEOREM ACCURACY
   8.0  10   -7.469910437E+01  7.469021188E+01 -2.000119058E+00  4.4E-06

 NUCLEAR CHARGE  7.0  SYMMETRY SPECIES            S    P
 N. ELECTRONS    7.0  NUMBER OF PRIMITIVE GTOS    9    3
                      NUMBER OF CONTRACTED GTOS   3    2
                      NUMBER OF CLOSED SHELLS     2    0
                      OPEN SHELL OCCUPATION       0    3

  ZNUC SCFIT  TOTAL HF ENERGY   KINETIC ENERGY   VIRIAL THEOREM ACCURACY
   7.0   8   -5.434075198E+01  5.432977783E+01 -2.000201992E+00  3.0E-06

 NUCLEAR CHARGE  1.0  SYMMETRY SPECIES            S
 N. ELECTRONS    1.0  NUMBER OF PRIMITIVE GTOS    3
                      NUMBER OF CONTRACTED GTOS   2
                      NUMBER OF CLOSED SHELLS     0
                      OPEN SHELL OCCUPATION       1

  ZNUC SCFIT  TOTAL HF ENERGY   KINETIC ENERGY   VIRIAL THEOREM ACCURACY
   1.0   1   -4.961986360E-01  5.144743151E-01 -1.964476984E+00  0.0E+00

 AAAAAAAAAAAAAAAAAAAAAAAAAAAAAAAAAAAAAAAAAAAAAAAAAAAAAAAAAAAAAAAAAAAAAAAAAAAAAAA

 CHARGE NORMALIZATION FACTOR   1.00000000
 TOTAL ATOMIC CHARGES:
   6.0000000   6.0000000   8.0000000   8.0000000   7.0000000   7.0000000
   7.0000000   7.0000000   1.0000000   1.0000000   1.0000000   1.0000000
   1.0000000   1.0000000   1.0000000   1.0000000
 TTTTTTTTTTTTTTTTTTTTTTTTTTTTTT MOQGAD      TELAPSE        8.21 TCPU        7.44
 TTTTTTTTTTTTTTTTTTTTTTTTTTTTTT SHELLXN     TELAPSE       15.93 TCPU       15.09
 TTTTTTTTTTTTTTTTTTTTTTTTTTTTTT MONMO3      TELAPSE       16.12 TCPU       15.28
 NUMERICALLY INTEGRATED DENSITY     63.9999848129
 TTTTTTTTTTTTTTTTTTTTTTTTTTTTTT NUMDFT      TELAPSE       16.98 TCPU       16.14
 CYC   0 ETOT(AU) -4.516148250039E+02 DETOT -4.52E+02 tst  0.00E+00 PX  1.00E+00
 TTTTTTTTTTTTTTTTTTTTTTTTTTTTTT DIIS        TELAPSE       16.98 TCPU       16.15
 TTTTTTTTTTTTTTTTTTTTTTTTTTTTTT FDIK        TELAPSE       17.00 TCPU       16.16
 INSULATING STATE
 TOP OF VALENCE BANDS -    BAND     32; K    1; EIG -3.0170599E-01 AU
 BOTTOM OF VIRTUAL BANDS - BAND     33; K    1; EIG -1.5550438E-02 AU
 DIRECT ENERGY BAND GAP:   7.7867 eV
 TTTTTTTTTTTTTTTTTTTTTTTTTTTTTT PDIG        TELAPSE       17.01 TCPU       16.17
 CHARGE NORMALIZATION FACTOR   1.00000000
 TOTAL ATOMIC CHARGES:
   4.6650354   4.6650354   8.8844261   8.8844261   7.8486382   7.8486382
   7.8486382   7.8486382   0.6884513   0.6884513   0.6884513   0.6884513
   0.6881797   0.6881797   0.6881797   0.6881797
 TTTTTTTTTTTTTTTTTTTTTTTTTTTTTT MOQGAD      TELAPSE       17.04 TCPU       16.20
 TTTTTTTTTTTTTTTTTTTTTTTTTTTTTT SHELLXN     TELAPSE       23.16 TCPU       22.18
 TTTTTTTTTTTTTTTTTTTTTTTTTTTTTT MONMO3      TELAPSE       23.35 TCPU       22.36
 NUMERICALLY INTEGRATED DENSITY     63.9999877493
 TTTTTTTTTTTTTTTTTTTTTTTTTTTTTT NUMDFT      TELAPSE       25.42 TCPU       24.37
 CYC   1 ETOT(AU) -4.497988489783E+02 DETOT  1.82E+00 tst  0.00E+00 PX  1.00E+00
 TTTTTTTTTTTTTTTTTTTTTTTTTTTTTT DIIS        TELAPSE       25.42 TCPU       24.38
 DIIS TEST: 0.12976E+01 AT SCF   CYCLE   1 - MIX   30 %
 TTTTTTTTTTTTTTTTTTTTTTTTTTTTTT FDIK        TELAPSE       25.43 TCPU       24.39
 INSULATING STATE
 TOP OF VALENCE BANDS -    BAND     32; K    1; EIG -2.0446186E-01 AU
 BOTTOM OF VIRTUAL BANDS - BAND     33; K    1; EIG  6.0372974E-02 AU
 DIRECT ENERGY BAND GAP:   7.2065 eV
 TTTTTTTTTTTTTTTTTTTTTTTTTTTTTT PDIG        TELAPSE       25.44 TCPU       24.40
 CHARGE NORMALIZATION FACTOR   1.00000000
 TOTAL ATOMIC CHARGES:
   5.3960695   5.3960695   8.3964023   8.3964023   7.4525359   7.4525359
   7.4525359   7.4525359   0.8252625   0.8252625   0.8252625   0.8252625
   0.8259657   0.8259657   0.8259657   0.8259657
 TTTTTTTTTTTTTTTTTTTTTTTTTTTTTT MOQGAD      TELAPSE       25.46 TCPU       24.42
 TTTTTTTTTTTTTTTTTTTTTTTTTTTTTT SHELLXN     TELAPSE       33.29 TCPU       31.46
 TTTTTTTTTTTTTTTTTTTTTTTTTTTTTT MONMO3      TELAPSE       33.55 TCPU       31.69
 NUMERICALLY INTEGRATED DENSITY     63.9999860835
 TTTTTTTTTTTTTTTTTTTTTTTTTTTTTT NUMDFT      TELAPSE       36.80 TCPU       34.58
 CYC   2 ETOT(AU) -4.499113199318E+02 DETOT -1.12E-01 tst  7.21E-03 PX  1.20E-01
 TTTTTTTTTTTTTTTTTTTTTTTTTTTTTT DIIS        TELAPSE       36.85 TCPU       34.59
 DIIS TEST: 0.50612E+00 AT SCF   CYCLE   2 - DIIS ACTIVE - HISTORY:     2 CYCLES
 TTTTTTTTTTTTTTTTTTTTTTTTTTTTTT FDIK        TELAPSE       36.93 TCPU       34.63
 INSULATING STATE
 TOP OF VALENCE BANDS -    BAND     32; K    1; EIG -2.2183453E-01 AU
 BOTTOM OF VIRTUAL BANDS - BAND     33; K    1; EIG  5.9566902E-02 AU
 DIRECT ENERGY BAND GAP:   7.6573 eV
 TTTTTTTTTTTTTTTTTTTTTTTTTTTTTT PDIG        TELAPSE       37.00 TCPU       34.66
 CHARGE NORMALIZATION FACTOR   1.00000000
 TOTAL ATOMIC CHARGES:
   5.0325446   5.0325446   8.6653928   8.6653928   7.5509305   7.5509305
   7.5509305   7.5509305   0.7989087   0.7989087   0.7989087   0.7989087
   0.8011921   0.8011921   0.8011921   0.8011921
 TTTTTTTTTTTTTTTTTTTTTTTTTTTTTT MOQGAD      TELAPSE       37.06 TCPU       34.70
 TTTTTTTTTTTTTTTTTTTTTTTTTTTTTT SHELLXN     TELAPSE       47.92 TCPU       45.06
 TTTTTTTTTTTTTTTTTTTTTTTTTTTTTT MONMO3      TELAPSE       48.21 TCPU       45.35
 NUMERICALLY INTEGRATED DENSITY     63.9999867601
 TTTTTTTTTTTTTTTTTTTTTTTTTTTTTT NUMDFT      TELAPSE       51.62 TCPU       48.65
 CYC   3 ETOT(AU) -4.499718333334E+02 DETOT -6.05E-02 tst  1.43E-03 PX  5.68E-02
 TTTTTTTTTTTTTTTTTTTTTTTTTTTTTT DIIS        TELAPSE       51.62 TCPU       48.66
 DIIS TEST: 0.40095E-01 AT SCF   CYCLE   3 - DIIS ACTIVE - HISTORY:     3 CYCLES
 TTTTTTTTTTTTTTTTTTTTTTTTTTTTTT FDIK        TELAPSE       51.64 TCPU       48.68
 INSULATING STATE
 TOP OF VALENCE BANDS -    BAND     32; K    1; EIG -2.3396830E-01 AU
 BOTTOM OF VIRTUAL BANDS - BAND     33; K    1; EIG  5.8072857E-02 AU
 DIRECT ENERGY BAND GAP:   7.9468 eV
 TTTTTTTTTTTTTTTTTTTTTTTTTTTTTT PDIG        TELAPSE       51.66 TCPU       48.69
 CHARGE NORMALIZATION FACTOR   1.00000000
 TOTAL ATOMIC CHARGES:
   5.0698355   5.0698355   8.5972888   8.5972888   7.5918482   7.5918482
   7.5918482   7.5918482   0.7862862   0.7862862   0.7862862   0.7862862
   0.7883034   0.7883034   0.7883034   0.7883034
 TTTTTTTTTTTTTTTTTTTTTTTTTTTTTT MOQGAD      TELAPSE       51.70 TCPU       48.73
 TTTTTTTTTTTTTTTTTTTTTTTTTTTTTT SHELLXN     TELAPSE       62.24 TCPU       58.97
 TTTTTTTTTTTTTTTTTTTTTTTTTTTTTT MONMO3      TELAPSE       62.53 TCPU       59.26
 NUMERICALLY INTEGRATED DENSITY     63.9999867753
 TTTTTTTTTTTTTTTTTTTTTTTTTTTTTT NUMDFT      TELAPSE       67.52 TCPU       63.36
 CYC   4 ETOT(AU) -4.499767928031E+02 DETOT -4.96E-03 tst  7.98E-05 PX  1.81E-02
 TTTTTTTTTTTTTTTTTTTTTTTTTTTTTT DIIS        TELAPSE       67.54 TCPU       63.38
 DIIS TEST: 0.15070E-02 AT SCF   CYCLE   4 - DIIS ACTIVE - HISTORY:     4 CYCLES
 TTTTTTTTTTTTTTTTTTTTTTTTTTTTTT FDIK        TELAPSE       67.58 TCPU       63.41
 INSULATING STATE
 TOP OF VALENCE BANDS -    BAND     32; K    1; EIG -2.3306484E-01 AU
 BOTTOM OF VIRTUAL BANDS - BAND     33; K    1; EIG  5.7639107E-02 AU
 DIRECT ENERGY BAND GAP:   7.9105 eV
 TTTTTTTTTTTTTTTTTTTTTTTTTTTTTT PDIG        TELAPSE       67.68 TCPU       63.46
 CHARGE NORMALIZATION FACTOR   1.00000000
 TOTAL ATOMIC CHARGES:
   5.0788572   5.0788572   8.6135503   8.6135503   7.5802077   7.5802077
   7.5802077   7.5802077   0.7861772   0.7861772   0.7861772   0.7861772
   0.7874114   0.7874114   0.7874114   0.7874114
 TTTTTTTTTTTTTTTTTTTTTTTTTTTTTT MOQGAD      TELAPSE       67.83 TCPU       63.52
 TTTTTTTTTTTTTTTTTTTTTTTTTTTTTT SHELLXN     TELAPSE       76.93 TCPU       71.45
 TTTTTTTTTTTTTTTTTTTTTTTTTTTTTT MONMO3      TELAPSE       77.12 TCPU       71.64
 NUMERICALLY INTEGRATED DENSITY     63.9999867063
 TTTTTTTTTTTTTTTTTTTTTTTTTTTTTT NUMDFT      TELAPSE       79.09 TCPU       73.60
 CYC   5 ETOT(AU) -4.499769709808E+02 DETOT -1.78E-04 tst  8.11E-06 PX  5.32E-03
 TTTTTTTTTTTTTTTTTTTTTTTTTTTTTT DIIS        TELAPSE       79.10 TCPU       73.61
 DIIS TEST: 0.31990E-03 AT SCF   CYCLE   5 - DIIS ACTIVE - HISTORY:     5 CYCLES
 TTTTTTTTTTTTTTTTTTTTTTTTTTTTTT FDIK        TELAPSE       79.11 TCPU       73.62
 INSULATING STATE
 TOP OF VALENCE BANDS -    BAND     32; K    1; EIG -2.3310484E-01 AU
 BOTTOM OF VIRTUAL BANDS - BAND     33; K    1; EIG  5.7808858E-02 AU
 DIRECT ENERGY BAND GAP:   7.9162 eV
 TTTTTTTTTTTTTTTTTTTTTTTTTTTTTT PDIG        TELAPSE       79.12 TCPU       73.63
 CHARGE NORMALIZATION FACTOR   1.00000000
 TOTAL ATOMIC CHARGES:
   5.0760626   5.0760626   8.6086903   8.6086903   7.5830011   7.5830011
   7.5830011   7.5830011   0.7865235   0.7865235   0.7865235   0.7865235
   0.7880989   0.7880989   0.7880989   0.7880989
 TTTTTTTTTTTTTTTTTTTTTTTTTTTTTT MOQGAD      TELAPSE       79.14 TCPU       73.65
 TTTTTTTTTTTTTTTTTTTTTTTTTTTTTT SHELLXN     TELAPSE       90.47 TCPU       82.76
 TTTTTTTTTTTTTTTTTTTTTTTTTTTTTT MONMO3      TELAPSE       90.68 TCPU       82.97
 NUMERICALLY INTEGRATED DENSITY     63.9999867246
 TTTTTTTTTTTTTTTTTTTTTTTTTTTTTT NUMDFT      TELAPSE       93.95 TCPU       86.05
 CYC   6 ETOT(AU) -4.499770155297E+02 DETOT -4.45E-05 tst  7.44E-07 PX  1.31E-03
 TTTTTTTTTTTTTTTTTTTTTTTTTTTTTT DIIS        TELAPSE       93.96 TCPU       86.07
 DIIS TEST: 0.63312E-06 AT SCF   CYCLE   6 - DIIS ACTIVE - HISTORY:     6 CYCLES
 TTTTTTTTTTTTTTTTTTTTTTTTTTTTTT FDIK        TELAPSE       93.99 TCPU       86.09
 INSULATING STATE
 TOP OF VALENCE BANDS -    BAND     32; K    1; EIG -2.3310579E-01 AU
 BOTTOM OF VIRTUAL BANDS - BAND     33; K    1; EIG  5.7818867E-02 AU
 DIRECT ENERGY BAND GAP:   7.9165 eV
 TTTTTTTTTTTTTTTTTTTTTTTTTTTTTT PDIG        TELAPSE       94.02 TCPU       86.12
 CHARGE NORMALIZATION FACTOR   1.00000000
 TOTAL ATOMIC CHARGES:
   5.0757629   5.0757629   8.6088727   8.6088727   7.5830727   7.5830727
   7.5830727   7.5830727   0.7865175   0.7865175   0.7865175   0.7865175
   0.7880920   0.7880920   0.7880920   0.7880920
 TTTTTTTTTTTTTTTTTTTTTTTTTTTTTT MOQGAD      TELAPSE       94.09 TCPU       86.17
 TTTTTTTTTTTTTTTTTTTTTTTTTTTTTT SHELLXN     TELAPSE      102.31 TCPU       94.34
 TTTTTTTTTTTTTTTTTTTTTTTTTTTTTT MONMO3      TELAPSE      102.52 TCPU       94.56
 NUMERICALLY INTEGRATED DENSITY     63.9999867248
 TTTTTTTTTTTTTTTTTTTTTTTTTTTTTT NUMDFT      TELAPSE      104.78 TCPU       96.81
 CYC   7 ETOT(AU) -4.499770157017E+02 DETOT -1.72E-07 tst  1.74E-09 PX  6.10E-05
 TTTTTTTTTTTTTTTTTTTTTTTTTTTTTT DIIS        TELAPSE      104.78 TCPU       96.82
 DIIS TEST: 0.28817E-08 AT SCF   CYCLE   7 - DIIS ACTIVE - HISTORY:     7 CYCLES
 TTTTTTTTTTTTTTTTTTTTTTTTTTTTTT FDIK        TELAPSE      104.80 TCPU       96.83
 INSULATING STATE
 TOP OF VALENCE BANDS -    BAND     32; K    1; EIG -2.3310823E-01 AU
 BOTTOM OF VIRTUAL BANDS - BAND     33; K    1; EIG  5.7816397E-02 AU
 DIRECT ENERGY BAND GAP:   7.9165 eV
 TTTTTTTTTTTTTTTTTTTTTTTTTTTTTT PDIG        TELAPSE      104.82 TCPU       96.85
 CHARGE NORMALIZATION FACTOR   1.00000000
 TOTAL ATOMIC CHARGES:
   5.0757574   5.0757574   8.6088752   8.6088752   7.5830733   7.5830733
   7.5830733   7.5830733   0.7865200   0.7865200   0.7865200   0.7865200
   0.7880904   0.7880904   0.7880904   0.7880904
 TTTTTTTTTTTTTTTTTTTTTTTTTTTTTT MOQGAD      TELAPSE      104.84 TCPU       96.87
 TTTTTTTTTTTTTTTTTTTTTTTTTTTTTT SHELLXN     TELAPSE      111.47 TCPU      103.50
 TTTTTTTTTTTTTTTTTTTTTTTTTTTTTT MONMO3      TELAPSE      111.68 TCPU      103.70
 NUMERICALLY INTEGRATED DENSITY     63.9999867248
 TTTTTTTTTTTTTTTTTTTTTTTTTTTTTT NUMDFT      TELAPSE      115.15 TCPU      107.17
 CYC   8 ETOT(AU) -4.499770157205E+02 DETOT -1.87E-08 tst  5.81E-12 PX  5.68E-06
 TTTTTTTTTTTTTTTTTTTTTTTTTTTTTT DIIS        TELAPSE      115.16 TCPU      107.18
 DIIS TEST: 0.22082E-09 AT SCF   CYCLE   8 - DIIS ACTIVE - HISTORY:     8 CYCLES
 TTTTTTTTTTTTTTTTTTTTTTTTTTTTTT FDIK        TELAPSE      115.17 TCPU      107.19
 INSULATING STATE
 TOP OF VALENCE BANDS -    BAND     32; K    1; EIG -2.3310841E-01 AU
 BOTTOM OF VIRTUAL BANDS - BAND     33; K    1; EIG  5.7816141E-02 AU
 DIRECT ENERGY BAND GAP:   7.9165 eV
 TTTTTTTTTTTTTTTTTTTTTTTTTTTTTT PDIG        TELAPSE      115.19 TCPU      107.21
 CHARGE NORMALIZATION FACTOR   1.00000000
 TOTAL ATOMIC CHARGES:
   5.0757608   5.0757608   8.6088767   8.6088767   7.5830715   7.5830715
   7.5830715   7.5830715   0.7865191   0.7865191   0.7865191   0.7865191
   0.7880907   0.7880907   0.7880907   0.7880907
 TTTTTTTTTTTTTTTTTTTTTTTTTTTTTT MOQGAD      TELAPSE      115.22 TCPU      107.24
 TTTTTTTTTTTTTTTTTTTTTTTTTTTTTT SHELLXN     TELAPSE      123.48 TCPU      115.25
 +++ ENERGIES IN A.U. +++
 ::: EXT EL-POLE                                  -5.9137844024723E+02
 ::: EXT EL-SPHEROPOLE                             7.0656329921475E+00
 ::: BIELET ZONE E-E                               7.2773128506102E+02
 ::: TOTAL E-E                                     1.4341847780593E+02
 ::: TOTAL E-N + N-E                              -9.1817311073699E+02
 ::: TOTAL N-N                                    -7.5336138747023E+01
 ::: KINETIC ENERGY                                4.4747682395909E+02
 ::: PSEUDO TOTAL   ENERGY                        -4.0261394771899E+02
 ::: VIRIAL COEFFICIENT                            1.0527742186302E+00
 TTTTTTTTTTTTTTTTTTTTTTTTTTTTTT MONMO3      TELAPSE      123.78 TCPU      115.55
 NUMERICALLY INTEGRATED DENSITY     63.9999867248
 TTTTTTTTTTTTTTTTTTTTTTTTTTTTTT NUMDFT      TELAPSE      127.57 TCPU      119.01
 CYC   9 ETOT(AU) -4.499770157218E+02 DETOT -1.31E-09 tst  3.72E-13 PX  5.68E-06

 == SCF ENDED - CONVERGENCE ON ENERGY      E(AU) -4.4997701572177E+02 CYCLES   9


 ENERGY EXPRESSION=HARTREE+FOCK EXCH*0.20000+(BECKE      EXCH)*0.80000+LYP        CORR


 TOTAL ENERGY(DFT)(AU)(  9) -4.4997701572177E+02 DE-1.3E-09 tester 3.7E-13
 TTTTTTTTTTTTTTTTTTTTTTTTTTTTTT EDFT        TELAPSE      127.57 TCPU      119.01

 *******************************************************************************
 *                             FORCE CALCULATION                               *
 *******************************************************************************

 TTTTTTTTTTTTTTTTTTTTTTTTTTTTTT NUMDFG      TELAPSE      203.36 TCPU      186.68
 INFORMATION **** EXCPOG **** EXCH. BIPO BUFFER LENGTH (WORDS) =     1253916
 INFORMATION **** GENPOG **** BIPO BUFFER LENGTH (WORDS) =      288800
 TTTTTTTTTTTTTTTTTTTTTTTTTTTTTT SHELXG      TELAPSE      250.56 TCPU      233.57

 CARTESIAN FORCES IN HARTREE/BOHR (ANALYTICAL)
   ATOM                     X                   Y                   Z
   1   6             2.081668171172E-16  7.494005416220E-16 -7.801596847293E-03
   2   6            -2.414735078560E-15 -2.026157019941E-15  7.801596847306E-03
   3   8             4.024558464266E-16  7.771561172376E-16  1.651405544537E-02
   4   8            -6.106226635438E-16 -1.554312234475E-15 -1.651405544538E-02
   5   7            -2.272833327805E-03 -2.272833327803E-03  1.646368334409E-03
   6   7             2.272833327807E-03  2.272833327804E-03  1.646368334413E-03
   7   7            -2.272833327802E-03  2.272833327801E-03 -1.646368334409E-03
   8   7             2.272833327803E-03 -2.272833327803E-03 -1.646368334408E-03
   9   1             4.716301021069E-03  4.716301021068E-03  1.799327998131E-03
  10   1            -4.716301021069E-03 -4.716301021068E-03  1.799327998132E-03
  11   1             4.716301021069E-03 -4.716301021068E-03 -1.799327998131E-03
  12   1            -4.716301021070E-03  4.716301021069E-03 -1.799327998132E-03
  13   1            -2.076651231131E-04 -2.076651231134E-04 -9.001828155982E-03
  14   1             2.076651231127E-04  2.076651231137E-04 -9.001828155982E-03
  15   1            -2.076651231115E-04  2.076651231144E-04  9.001828155982E-03
  16   1             2.076651231129E-04 -2.076651231130E-04  9.001828155982E-03

 RESULTANT FORCE    -2.498001805407E-16 -9.436895709314E-16  4.551914400963E-15

 ATOMIC PART

 SYMMETRY ALLOWED FORCES (ANALYTICAL) (DIRECTION, FORCE)

    1 -1.1033124E-02    2  2.3354401E-02    3 -6.4285434E-03    4  3.2927367E-03
    5  1.3339714E-02    6  3.5986560E-03    7 -5.8736567E-04    8 -1.8003656E-02

 CELL PART

 GRADIENT WITH RESPECT TO THE CELL PARAMETER IN HARTREE/BOHR
ORDER: -D/DA1X, -D/DA1Y, -D/DA1Z
       -D/DA2X, -D/DA2Y, -D/DA2Z
       -D/DA3X, -D/DA3Y, -D/DA3Z
  0.120845879260E-02  0.615425974014E-16  0.692730604139E-15
  0.771051699372E-15  0.120845879260E-02 -0.770072627718E-15
  0.713242318442E-15  0.257763678614E-15  0.131297471246E-01

STRESS TENSOR, IN HARTREE/BOHR^3:
ORDER: 11 12 13
       21 22 23
       31 32 33
 -0.129823123084E-04 -0.828330599974E-17 -0.644924725285E-17
 -0.661143950153E-18 -0.129823123084E-04 -0.233073901142E-17
 -0.744191287581E-17  0.827278796300E-17 -0.118721202296E-03

STRESS TENSOR DOES NOT CORRESPOND TO
HYDROSTATIC PRESSURE, NO PRESSURE COMPUTED!

 SYMMETRY ALLOWED FORCES (ANALYTICAL) (DIRECTION, FORCE)

    1  7.3273565E-03    2 -8.4067427E-03
 TTTTTTTTTTTTTTTTTTTTTTTTTTTTTT TOTGRA_C    TELAPSE      255.64 TCPU      238.64
 INFORMATION **** optc001 **** GEOMETRY OUTPUT FILE
 CLASSICAL MODEL (SCHLEGEL) USED AS INITIAL HESSIAN MATRIX
 REFERENCE GEOMETRY DEFINED

 MAX GRADIENT      0.023354  THRESHOLD              0.000450 CONVERGED NO
 RMS GRADIENT      0.011658  THRESHOLD              0.000300 CONVERGED NO

 GRADIENT NORM     0.036865  GRADIENT THRESHOLD     0.500000

 EIGENVALUES OF THE ESTIMATED HESSIAN
  0.2392E-01  0.2843E-01  0.8975E-01  0.1120      0.1767      0.3127    
  0.5401       1.088       1.303       1.772    

 INITIAL TRUST RADIUS    0.5000000000E+00

 PREDICTED ENERGY CHANGE    -0.108E-02

 INITIAL DISPLACEMENTS
 -0.012068  0.021027  0.011700 -0.045271  0.048621 -0.043410 -0.004345 -0.077090
 -0.037108 -0.017611
 TTTTTTTTTTTTTTTTTTTTTTTTTTTTTT OPTI        TELAPSE      255.65 TCPU      238.65

 OPTOPTOPTOPTOPTOPTOPTOPTOPTOPTOPTOPTOPTOPTOPTOPTOPTOPTOPTOPTOPTOPTOPTOPTOPTOPT

 - INFORMATION ON SCF MOVED TO SCFOUT.LOG
 GEOMETRY OPTIMIZATION INFORMATION STORED IN OPTINFO.DAT

 OPTOPTOPTOPTOPTOPTOPTOPTOPTOPTOPTOPTOPTOPTOPTOPTOPTOPTOPTOPTOPTOPTOPTOPTOPTOPT
 *******************************************************************************
 COORDINATE AND CELL OPTIMIZATION - POINT    2
 *******************************************************************************
 LATTICE PARAMETERS (ANGSTROMS AND DEGREES) - BOHR = 0.5291772083 ANGSTROM
 PRIMITIVE CELL - CENTRING CODE 1/0 VOLUME=   144.225804 - DENSITY  1.382 g/cm^3
         A              B              C           ALPHA      BETA       GAMMA 
     5.55033691     5.55033691     4.68170750    90.000000  90.000000  90.000000
 *******************************************************************************
 ATOMS IN THE ASYMMETRIC UNIT    5 - ATOMS IN THE UNIT CELL:   16
     ATOM                 X/A                 Y/B                 Z/C    
 *******************************************************************************
      1 T   6 C     0.000000000000E+00 -5.000000000000E-01  3.250359229563E-01
      2 F   6 C     5.000000000000E-01  0.000000000000E+00 -3.250359229563E-01
      3 T   8 O     0.000000000000E+00 -5.000000000000E-01 -4.030202041720E-01
      4 F   8 O     5.000000000000E-01  0.000000000000E+00  4.030202041720E-01
      5 T   7 N     1.462933357931E-01 -3.537066642069E-01  1.740427687435E-01
      6 F   7 N    -1.462933357931E-01  3.537066642069E-01  1.740427687435E-01
      7 F   7 N    -3.537066642069E-01 -1.462933357931E-01 -1.740427687435E-01
      8 F   7 N     3.537066642069E-01  1.462933357931E-01 -1.740427687435E-01
      9 T   1 H     2.591346237266E-01 -2.408653762734E-01  2.802478910789E-01
     10 F   1 H    -2.591346237266E-01  2.408653762734E-01  2.802478910789E-01
     11 F   1 H    -2.408653762734E-01 -2.591346237266E-01 -2.802478910789E-01
     12 F   1 H     2.408653762734E-01  2.591346237266E-01 -2.802478910789E-01
     13 T   1 H     1.439539201938E-01 -3.560460798062E-01 -4.235462503892E-02
     14 F   1 H    -1.439539201938E-01  3.560460798062E-01 -4.235462503892E-02
     15 F   1 H    -3.560460798062E-01 -1.439539201938E-01  4.235462503892E-02
     16 F   1 H     3.560460798062E-01  1.439539201938E-01  4.235462503892E-02

 T = ATOM BELONGING TO THE ASYMMETRIC UNIT

 TOTAL ENERGY(DFT)(AU)(  7) -4.4997832208813E+02     DE (AU)   -1.306E-03

 UPDATED TRUST RADIUS     0.100E+01

 SYMMETRY ALLOWED FORCES  (COORDINATE, FORCE)

    1 -5.9217225E-03    2  2.8049743E-03    3 -3.3961288E-03    4  6.0144180E-03
    5  4.1666203E-03    6 -1.5289740E-03    7 -1.1751638E-03    8 -4.0342066E-03
    9 -3.1845712E-03   10  1.8785272E-03

 GRADIENT NORM     0.011902  GRADIENT THRESHOLD     0.500000

 EIGENVALUES OF THE ESTIMATED HESSIAN
  0.1850E-01  0.2814E-01  0.7781E-01  0.1190      0.1804      0.3086    
  0.6258       1.091       1.317       1.641    

 PREDICTED ENERGY CHANGE    -0.466E-03

 MAX GRADIENT      0.006014  THRESHOLD              0.000450 CONVERGED NO
 RMS GRADIENT      0.003764  THRESHOLD              0.000300 CONVERGED NO
 MAX DISPLAC.      0.123034  THRESHOLD              0.001800 CONVERGED NO
 RMS DISPLAC.      0.058570  THRESHOLD              0.001200 CONVERGED NO
 TTTTTTTTTTTTTTTTTTTTTTTTTTTTTT OPTI        TELAPSE      481.99 TCPU      453.11
 *******************************************************************************
 COORDINATE AND CELL OPTIMIZATION - POINT    3
 *******************************************************************************
 LATTICE PARAMETERS (ANGSTROMS AND DEGREES) - BOHR = 0.5291772083 ANGSTROM
 PRIMITIVE CELL - CENTRING CODE 1/0 VOLUME=   141.488926 - DENSITY  1.409 g/cm^3
         A              B              C           ALPHA      BETA       GAMMA 
     5.51995229     5.51995229     4.64356793    90.000000  90.000000  90.000000
 *******************************************************************************
 ATOMS IN THE ASYMMETRIC UNIT    5 - ATOMS IN THE UNIT CELL:   16
     ATOM                 X/A                 Y/B                 Z/C    
 *******************************************************************************
      1 T   6 C     0.000000000000E+00 -5.000000000000E-01  3.225599548976E-01
      2 F   6 C    -5.000000000000E-01  0.000000000000E+00 -3.225599548976E-01
      3 T   8 O     0.000000000000E+00 -5.000000000000E-01 -4.025401208231E-01
      4 F   8 O    -5.000000000000E-01  0.000000000000E+00  4.025401208231E-01
      5 T   7 N     1.470215417599E-01 -3.529784582401E-01  1.710495515609E-01
      6 F   7 N    -1.470215417599E-01  3.529784582401E-01  1.710495515609E-01
      7 F   7 N    -3.529784582401E-01 -1.470215417599E-01 -1.710495515609E-01
      8 F   7 N     3.529784582401E-01  1.470215417599E-01 -1.710495515609E-01
      9 T   1 H     2.610563418621E-01 -2.389436581379E-01  2.777960346220E-01
     10 F   1 H    -2.610563418621E-01  2.389436581379E-01  2.777960346220E-01
     11 F   1 H    -2.389436581379E-01 -2.610563418621E-01 -2.777960346220E-01
     12 F   1 H     2.389436581379E-01  2.610563418621E-01 -2.777960346220E-01
     13 T   1 H     1.440256695717E-01 -3.559743304283E-01 -4.778942937114E-02
     14 F   1 H    -1.440256695717E-01  3.559743304283E-01 -4.778942937114E-02
     15 F   1 H    -3.559743304283E-01 -1.440256695717E-01  4.778942937114E-02
     16 F   1 H     3.559743304283E-01  1.440256695717E-01  4.778942937114E-02

 T = ATOM BELONGING TO THE ASYMMETRIC UNIT

 TOTAL ENERGY(DFT)(AU)(  6) -4.4997897539731E+02     DE (AU)   -6.533E-04

 UPDATED TRUST RADIUS     0.200E+01

 SYMMETRY ALLOWED FORCES  (COORDINATE, FORCE)

    1 -2.0591239E-03    2  1.0000155E-04    3  1.0859105E-03    4  2.0505313E-03
    5 -6.7913687E-04    6 -2.9266787E-03    7 -2.1874697E-04    8  1.1148131E-03
    9 -2.9860689E-03   10  2.3421222E-03

 GRADIENT NORM     0.005861  GRADIENT THRESHOLD     0.500000

 EIGENVALUES OF THE ESTIMATED HESSIAN
  0.1176E-01  0.2811E-01  0.6822E-01  0.1153      0.1804      0.3183    
  0.6461       1.117       1.327       1.645    

 PREDICTED ENERGY CHANGE    -0.196E-03

 MAX GRADIENT      0.002986  THRESHOLD              0.000450 CONVERGED NO
 RMS GRADIENT      0.001853  THRESHOLD              0.000300 CONVERGED NO
 MAX DISPLAC.      0.111909  THRESHOLD              0.001800 CONVERGED NO
 RMS DISPLAC.      0.050687  THRESHOLD              0.001200 CONVERGED NO
 TTTTTTTTTTTTTTTTTTTTTTTTTTTTTT OPTI        TELAPSE      691.56 TCPU      650.44
 *******************************************************************************
 COORDINATE AND CELL OPTIMIZATION - POINT    4
 *******************************************************************************
 LATTICE PARAMETERS (ANGSTROMS AND DEGREES) - BOHR = 0.5291772083 ANGSTROM
 PRIMITIVE CELL - CENTRING CODE 1/0 VOLUME=   139.045249 - DENSITY  1.434 g/cm^3
         A              B              C           ALPHA      BETA       GAMMA 
     5.49353751     5.49353751     4.60735809    90.000000  90.000000  90.000000
 *******************************************************************************
 ATOMS IN THE ASYMMETRIC UNIT    5 - ATOMS IN THE UNIT CELL:   16
     ATOM                 X/A                 Y/B                 Z/C    
 *******************************************************************************
      1 T   6 C     0.000000000000E+00  5.000000000000E-01  3.205672666456E-01
      2 F   6 C     5.000000000000E-01  0.000000000000E+00 -3.205672666456E-01
      3 T   8 O     0.000000000000E+00  5.000000000000E-01 -4.019634556324E-01
      4 F   8 O     5.000000000000E-01  0.000000000000E+00  4.019634556324E-01
      5 T   7 N     1.477367559115E-01 -3.522632440885E-01  1.685189092395E-01
      6 F   7 N    -1.477367559115E-01  3.522632440885E-01  1.685189092395E-01
      7 F   7 N    -3.522632440885E-01 -1.477367559115E-01 -1.685189092395E-01
      8 F   7 N     3.522632440885E-01  1.477367559115E-01 -1.685189092395E-01
      9 T   1 H     2.625272020935E-01 -2.374727979065E-01  2.752753702315E-01
     10 F   1 H    -2.625272020935E-01  2.374727979065E-01  2.752753702315E-01
     11 F   1 H    -2.374727979065E-01 -2.625272020935E-01 -2.752753702315E-01
     12 F   1 H     2.374727979065E-01  2.625272020935E-01 -2.752753702315E-01
     13 T   1 H     1.442337684596E-01 -3.557662315404E-01 -5.197063178371E-02
     14 F   1 H    -1.442337684596E-01  3.557662315404E-01 -5.197063178371E-02
     15 F   1 H    -3.557662315404E-01 -1.442337684596E-01  5.197063178371E-02
     16 F   1 H     3.557662315404E-01  1.442337684596E-01  5.197063178371E-02

 T = ATOM BELONGING TO THE ASYMMETRIC UNIT

 TOTAL ENERGY(DFT)(AU)(  6) -4.4997916786168E+02     DE (AU)   -1.925E-04

 UPDATED TRUST RADIUS     0.400E+01

 SYMMETRY ALLOWED FORCES  (COORDINATE, FORCE)

    1  4.3960159E-04    2 -1.4554445E-03    3  1.1223724E-04    4  6.2211163E-04
    5 -7.3290590E-04    6 -1.2100795E-03    7  3.3645773E-04    8  6.3079044E-04
    9 -4.5341780E-04   10  6.2888829E-04

 GRADIENT NORM     0.002413  GRADIENT THRESHOLD     0.500000

 EIGENVALUES OF THE ESTIMATED HESSIAN
  0.1233E-01  0.2812E-01  0.6873E-01  0.1152      0.1805      0.3172    
  0.6196       1.119       1.316       1.655    

 PREDICTED ENERGY CHANGE    -0.451E-05

 MAX GRADIENT      0.001455  THRESHOLD              0.000450 CONVERGED NO
 RMS GRADIENT      0.000763  THRESHOLD              0.000300 CONVERGED NO
 MAX DISPLAC.      0.005106  THRESHOLD              0.001800 CONVERGED NO
 RMS DISPLAC.      0.002757  THRESHOLD              0.001200 CONVERGED NO
 TTTTTTTTTTTTTTTTTTTTTTTTTTTTTT OPTI        TELAPSE      915.99 TCPU      856.67
 *******************************************************************************
 COORDINATE AND CELL OPTIMIZATION - POINT    5
 *******************************************************************************
 LATTICE PARAMETERS (ANGSTROMS AND DEGREES) - BOHR = 0.5291772083 ANGSTROM
 PRIMITIVE CELL - CENTRING CODE 1/0 VOLUME=   139.155451 - DENSITY  1.433 g/cm^3
         A              B              C           ALPHA      BETA       GAMMA 
     5.49598871     5.49598871     4.60689761    90.000000  90.000000  90.000000
 *******************************************************************************
 ATOMS IN THE ASYMMETRIC UNIT    5 - ATOMS IN THE UNIT CELL:   16
     ATOM                 X/A                 Y/B                 Z/C    
 *******************************************************************************
      1 T   6 C     0.000000000000E+00 -5.000000000000E-01  3.205257817401E-01
      2 F   6 C    -5.000000000000E-01  0.000000000000E+00 -3.205257817401E-01
      3 T   8 O     0.000000000000E+00 -5.000000000000E-01 -4.020976147464E-01
      4 F   8 O    -5.000000000000E-01  0.000000000000E+00  4.020976147464E-01
      5 T   7 N     1.476741205873E-01 -3.523258794127E-01  1.685122080584E-01
      6 F   7 N    -1.476741205873E-01  3.523258794127E-01  1.685122080584E-01
      7 F   7 N    -3.523258794127E-01 -1.476741205873E-01 -1.685122080584E-01
      8 F   7 N     3.523258794127E-01  1.476741205873E-01 -1.685122080584E-01
      9 T   1 H     2.623991006880E-01 -2.376008993120E-01  2.751149860559E-01
     10 F   1 H    -2.623991006880E-01  2.376008993120E-01  2.751149860559E-01
     11 F   1 H    -2.376008993120E-01 -2.623991006880E-01 -2.751149860559E-01
     12 F   1 H     2.376008993120E-01  2.623991006880E-01 -2.751149860559E-01
     13 T   1 H     1.442227827509E-01 -3.557772172491E-01 -5.192847093856E-02
     14 F   1 H    -1.442227827509E-01  3.557772172491E-01 -5.192847093856E-02
     15 F   1 H    -3.557772172491E-01 -1.442227827509E-01  5.192847093856E-02
     16 F   1 H     3.557772172491E-01  1.442227827509E-01  5.192847093856E-02

 T = ATOM BELONGING TO THE ASYMMETRIC UNIT

 TOTAL ENERGY(DFT)(AU)(  5) -4.4997917547887E+02     DE (AU)   -7.617E-06

 UPDATED TRUST RADIUS     0.400E+01

 SYMMETRY ALLOWED FORCES  (COORDINATE, FORCE)

    1  3.4512973E-04    2 -6.4033872E-04    3 -9.0396202E-05    4  1.9795470E-04
    5 -2.3347904E-04    6 -6.6159432E-04    7  2.0858185E-04    8  6.7212325E-05
    9 -4.9751720E-05   10  1.3152883E-04

 GRADIENT NORM     0.001066  GRADIENT THRESHOLD     0.500000

 EIGENVALUES OF THE ESTIMATED HESSIAN
  0.1277E-01  0.2021E-01  0.6836E-01  0.1169      0.1662      0.2806    
  0.6068       1.072       1.275       1.614    

 PREDICTED ENERGY CHANGE    -0.315E-05

 MAX GRADIENT      0.000662  THRESHOLD              0.000450 CONVERGED NO
 RMS GRADIENT      0.000337  THRESHOLD              0.000300 CONVERGED NO
 MAX DISPLAC.      0.007351  THRESHOLD              0.001800 CONVERGED NO
 RMS DISPLAC.      0.004324  THRESHOLD              0.001200 CONVERGED NO
 TTTTTTTTTTTTTTTTTTTTTTTTTTTTTT OPTI        TELAPSE     1170.19 TCPU     1075.17
 *******************************************************************************
 COORDINATE AND CELL OPTIMIZATION - POINT    6
 *******************************************************************************
 LATTICE PARAMETERS (ANGSTROMS AND DEGREES) - BOHR = 0.5291772083 ANGSTROM
 PRIMITIVE CELL - CENTRING CODE 1/0 VOLUME=   139.271723 - DENSITY  1.432 g/cm^3
         A              B              C           ALPHA      BETA       GAMMA 
     5.49878433     5.49878433     4.60605985    90.000000  90.000000  90.000000
 *******************************************************************************
 ATOMS IN THE ASYMMETRIC UNIT    5 - ATOMS IN THE UNIT CELL:   16
     ATOM                 X/A                 Y/B                 Z/C    
 *******************************************************************************
      1 T   6 C     0.000000000000E+00  5.000000000000E-01  3.203498005866E-01
      2 F   6 C    -5.000000000000E-01  0.000000000000E+00 -3.203498005866E-01
      3 T   8 O     0.000000000000E+00  5.000000000000E-01 -4.023195598359E-01
      4 F   8 O    -5.000000000000E-01  0.000000000000E+00  4.023195598359E-01
      5 T   7 N     1.475858310338E-01 -3.524141689662E-01  1.682787774410E-01
      6 F   7 N    -1.475858310338E-01  3.524141689662E-01  1.682787774410E-01
      7 F   7 N    -3.524141689662E-01 -1.475858310338E-01 -1.682787774410E-01
      8 F   7 N     3.524141689662E-01  1.475858310338E-01 -1.682787774410E-01
      9 T   1 H     2.622575949122E-01 -2.377424050878E-01  2.746997716895E-01
     10 F   1 H    -2.622575949122E-01  2.377424050878E-01  2.746997716895E-01
     11 F   1 H    -2.377424050878E-01 -2.622575949122E-01 -2.746997716895E-01
     12 F   1 H     2.377424050878E-01  2.622575949122E-01 -2.746997716895E-01
     13 T   1 H     1.441911571163E-01 -3.558088428837E-01 -5.215942945592E-02
     14 F   1 H    -1.441911571163E-01  3.558088428837E-01 -5.215942945592E-02
     15 F   1 H    -3.558088428837E-01 -1.441911571163E-01  5.215942945592E-02
     16 F   1 H     3.558088428837E-01  1.441911571163E-01  5.215942945592E-02

 T = ATOM BELONGING TO THE ASYMMETRIC UNIT

 TOTAL ENERGY(DFT)(AU)(  3) -4.4997918047733E+02     DE (AU)   -4.998E-06

 UPDATED TRUST RADIUS     0.400E+01

 SYMMETRY ALLOWED FORCES  (COORDINATE, FORCE)

    1  3.9635087E-05    2 -3.4388401E-05    3 -4.5885189E-05    4 -9.6605078E-05
    5  1.6737066E-04    6 -9.4918811E-05    7  1.5585893E-06    8 -2.4806410E-04
    9  2.3696400E-04   10 -1.9833371E-04

 GRADIENT NORM     0.000456  GRADIENT THRESHOLD     0.500000

 EIGENVALUES OF THE ESTIMATED HESSIAN
  0.1145E-01  0.1503E-01  0.6731E-01  0.1073      0.1554      0.3139    
  0.6941       1.062       1.299       1.622    

 PREDICTED ENERGY CHANGE    -0.111E-05

 MAX GRADIENT      0.000248  THRESHOLD              0.000450 CONVERGED YES
 RMS GRADIENT      0.000144  THRESHOLD              0.000300 CONVERGED YES
 MAX DISPLAC.      0.005740  THRESHOLD              0.001800 CONVERGED NO
 RMS DISPLAC.      0.003559  THRESHOLD              0.001200 CONVERGED NO
 TTTTTTTTTTTTTTTTTTTTTTTTTTTTTT OPTI        TELAPSE     1360.02 TCPU     1246.48
 *******************************************************************************
 COORDINATE AND CELL OPTIMIZATION - POINT    7
 *******************************************************************************
 LATTICE PARAMETERS (ANGSTROMS AND DEGREES) - BOHR = 0.5291772083 ANGSTROM
 PRIMITIVE CELL - CENTRING CODE 1/0 VOLUME=   139.334572 - DENSITY  1.431 g/cm^3
         A              B              C           ALPHA      BETA       GAMMA 
     5.50026340     5.50026340     4.60566040    90.000000  90.000000  90.000000
 *******************************************************************************
 ATOMS IN THE ASYMMETRIC UNIT    5 - ATOMS IN THE UNIT CELL:   16
     ATOM                 X/A                 Y/B                 Z/C    
 *******************************************************************************
      1 T   6 C     0.000000000000E+00 -5.000000000000E-01  3.201082977323E-01
      2 F   6 C    -5.000000000000E-01  0.000000000000E+00 -3.201082977323E-01
      3 T   8 O     0.000000000000E+00 -5.000000000000E-01 -4.025506739889E-01
      4 F   8 O    -5.000000000000E-01  0.000000000000E+00  4.025506739889E-01
      5 T   7 N     1.475505007223E-01 -3.524494992777E-01  1.679961636249E-01
      6 F   7 N    -1.475505007223E-01  3.524494992777E-01  1.679961636249E-01
      7 F   7 N    -3.524494992777E-01 -1.475505007223E-01 -1.679961636249E-01
      8 F   7 N     3.524494992777E-01  1.475505007223E-01 -1.679961636249E-01
      9 T   1 H     2.621981374701E-01 -2.378018625299E-01  2.743755414932E-01
     10 F   1 H    -2.621981374701E-01  2.378018625299E-01  2.743755414932E-01
     11 F   1 H    -2.378018625299E-01 -2.621981374701E-01 -2.743755414932E-01
     12 F   1 H     2.378018625299E-01  2.621981374701E-01 -2.743755414932E-01
     13 T   1 H     1.441768527570E-01 -3.558231472430E-01 -5.246762519644E-02
     14 F   1 H    -1.441768527570E-01  3.558231472430E-01 -5.246762519644E-02
     15 F   1 H    -3.558231472430E-01 -1.441768527570E-01  5.246762519644E-02
     16 F   1 H     3.558231472430E-01  1.441768527570E-01  5.246762519644E-02

 T = ATOM BELONGING TO THE ASYMMETRIC UNIT

 TOTAL ENERGY(DFT)(AU)(  4) -4.4997918249756E+02     DE (AU)   -2.020E-06

 UPDATED TRUST RADIUS     0.400E+01

 SYMMETRY ALLOWED FORCES  (COORDINATE, FORCE)

    1  7.5897891E-05    2 -8.3881246E-05    3 -1.0996282E-04    4 -1.2276905E-04
    5  1.6763653E-04    6  6.2789376E-05    7 -8.4254226E-05    8 -2.1839635E-04
    9  1.2968268E-04   10 -2.0792784E-04

 GRADIENT NORM     0.000432  GRADIENT THRESHOLD     0.500000

 EIGENVALUES OF THE ESTIMATED HESSIAN
  0.6546E-02  0.1605E-01  0.6080E-01  0.9659E-01  0.1721      0.3112    
  0.6537       1.058       1.298       1.628    

 PREDICTED ENERGY CHANGE    -0.103E-05

 MAX GRADIENT      0.000218  THRESHOLD              0.000450 CONVERGED YES
 RMS GRADIENT      0.000137  THRESHOLD              0.000300 CONVERGED YES
 MAX DISPLAC.      0.008388  THRESHOLD              0.001800 CONVERGED NO
 RMS DISPLAC.      0.004712  THRESHOLD              0.001200 CONVERGED NO
 TTTTTTTTTTTTTTTTTTTTTTTTTTTTTT OPTI        TELAPSE     1583.09 TCPU     1438.05
 *******************************************************************************
 COORDINATE AND CELL OPTIMIZATION - POINT    8
 *******************************************************************************
 LATTICE PARAMETERS (ANGSTROMS AND DEGREES) - BOHR = 0.5291772083 ANGSTROM
 PRIMITIVE CELL - CENTRING CODE 1/0 VOLUME=   139.351119 - DENSITY  1.431 g/cm^3
         A              B              C           ALPHA      BETA       GAMMA 
     5.50079750     5.50079750     4.60531292    90.000000  90.000000  90.000000
 *******************************************************************************
 ATOMS IN THE ASYMMETRIC UNIT    5 - ATOMS IN THE UNIT CELL:   16
     ATOM                 X/A                 Y/B                 Z/C    
 *******************************************************************************
      1 T   6 C     0.000000000000E+00 -5.000000000000E-01  3.197467943646E-01
      2 F   6 C    -5.000000000000E-01  0.000000000000E+00 -3.197467943646E-01
      3 T   8 O     0.000000000000E+00 -5.000000000000E-01 -4.029081140976E-01
      4 F   8 O    -5.000000000000E-01  0.000000000000E+00  4.029081140976E-01
      5 T   7 N     1.475199105618E-01 -3.524800894382E-01  1.675704220173E-01
      6 F   7 N    -1.475199105618E-01  3.524800894382E-01  1.675704220173E-01
      7 F   7 N    -3.524800894382E-01 -1.475199105618E-01 -1.675704220173E-01
      8 F   7 N     3.524800894382E-01  1.475199105618E-01 -1.675704220173E-01
      9 T   1 H     2.621508950622E-01 -2.378491049378E-01  2.739816265836E-01
     10 F   1 H    -2.621508950622E-01  2.378491049378E-01  2.739816265836E-01
     11 F   1 H    -2.378491049378E-01 -2.621508950622E-01 -2.739816265836E-01
     12 F   1 H     2.378491049378E-01  2.621508950622E-01 -2.739816265836E-01
     13 T   1 H     1.441579108429E-01 -3.558420891571E-01 -5.294146071429E-02
     14 F   1 H    -1.441579108429E-01  3.558420891571E-01 -5.294146071429E-02
     15 F   1 H    -3.558420891571E-01 -1.441579108429E-01  5.294146071429E-02
     16 F   1 H     3.558420891571E-01  1.441579108429E-01  5.294146071429E-02

 T = ATOM BELONGING TO THE ASYMMETRIC UNIT

 TOTAL ENERGY(DFT)(AU)(  4) -4.4997918372999E+02     DE (AU)   -1.232E-06

 UPDATED TRUST RADIUS     0.400E+01

 SYMMETRY ALLOWED FORCES  (COORDINATE, FORCE)

    1 -6.1627343E-05    2 -2.9700637E-05    3  1.6209695E-04    4 -1.4384207E-04
    5  1.0371991E-04    6  8.0288034E-05    7 -1.2064761E-04    8  3.9727515E-05
    9  5.8756647E-05   10 -8.5929008E-05

 GRADIENT NORM     0.000310  GRADIENT THRESHOLD     0.500000

 EIGENVALUES OF THE ESTIMATED HESSIAN
  0.6188E-02  0.1685E-01  0.5377E-01  0.9527E-01  0.1729      0.2959    
  0.6485       1.101       1.301       1.626    

 PREDICTED ENERGY CHANGE    -0.231E-06

 MAX GRADIENT      0.000162  THRESHOLD              0.000450 CONVERGED YES
 RMS GRADIENT      0.000098  THRESHOLD              0.000300 CONVERGED YES
 MAX DISPLAC.      0.002030  THRESHOLD              0.001800 CONVERGED NO
 RMS DISPLAC.      0.001293  THRESHOLD              0.001200 CONVERGED NO
 TTTTTTTTTTTTTTTTTTTTTTTTTTTTTT OPTI        TELAPSE     1788.01 TCPU     1631.92
 *******************************************************************************
 COORDINATE AND CELL OPTIMIZATION - POINT    9
 *******************************************************************************
 LATTICE PARAMETERS (ANGSTROMS AND DEGREES) - BOHR = 0.5291772083 ANGSTROM
 PRIMITIVE CELL - CENTRING CODE 1/0 VOLUME=   139.335307 - DENSITY  1.431 g/cm^3
         A              B              C           ALPHA      BETA       GAMMA 
     5.50033986     5.50033986     4.60555667    90.000000  90.000000  90.000000
 *******************************************************************************
 ATOMS IN THE ASYMMETRIC UNIT    5 - ATOMS IN THE UNIT CELL:   16
     ATOM                 X/A                 Y/B                 Z/C    
 *******************************************************************************
      1 T   6 C     0.000000000000E+00 -5.000000000000E-01  3.196230374963E-01
      2 F   6 C    -5.000000000000E-01  0.000000000000E+00 -3.196230374963E-01
      3 T   8 O     0.000000000000E+00 -5.000000000000E-01 -4.030357019386E-01
      4 F   8 O    -5.000000000000E-01  0.000000000000E+00  4.030357019386E-01
      5 T   7 N     1.475423891312E-01 -3.524576108688E-01  1.674557411085E-01
      6 F   7 N    -1.475423891312E-01  3.524576108688E-01  1.674557411085E-01
      7 F   7 N    -3.524576108688E-01 -1.475423891312E-01 -1.674557411085E-01
      8 F   7 N     3.524576108688E-01  1.475423891312E-01 -1.674557411085E-01
      9 T   1 H     2.621725553647E-01 -2.378274446353E-01  2.739190556449E-01
     10 F   1 H    -2.621725553647E-01  2.378274446353E-01  2.739190556449E-01
     11 F   1 H    -2.378274446353E-01 -2.621725553647E-01 -2.739190556449E-01
     12 F   1 H     2.378274446353E-01  2.621725553647E-01 -2.739190556449E-01
     13 T   1 H     1.441680671596E-01 -3.558319328404E-01 -5.304999041926E-02
     14 F   1 H    -1.441680671596E-01  3.558319328404E-01 -5.304999041926E-02
     15 F   1 H    -3.558319328404E-01 -1.441680671596E-01  5.304999041926E-02
     16 F   1 H     3.558319328404E-01  1.441680671596E-01  5.304999041926E-02

 T = ATOM BELONGING TO THE ASYMMETRIC UNIT

 TOTAL ENERGY(DFT)(AU)(  3) -4.4997918388679E+02     DE (AU)   -1.568E-07

 UPDATED TRUST RADIUS     0.400E+01

 SYMMETRY ALLOWED FORCES  (COORDINATE, FORCE)

    1 -2.8265973E-05    2 -1.0271507E-04    3  2.5802453E-05    4 -4.0723439E-05
    5  4.4706782E-05    6  4.7205719E-06    7 -6.4723174E-05    8  8.7839734E-05
    9 -3.1093753E-05   10 -2.8977952E-05

 GRADIENT NORM     0.000171  GRADIENT THRESHOLD     0.500000

 EIGENVALUES OF THE ESTIMATED HESSIAN
  0.6183E-02  0.1485E-01  0.3656E-01  0.9410E-01  0.1738      0.2519    
  0.7159       1.127       1.302       1.622    

 PREDICTED ENERGY CHANGE    -0.158E-06

 MAX GRADIENT      0.000103  THRESHOLD              0.000450 CONVERGED YES
 RMS GRADIENT      0.000054  THRESHOLD              0.000300 CONVERGED YES
 MAX DISPLAC.      0.002349  THRESHOLD              0.001800 CONVERGED NO
 RMS DISPLAC.      0.001240  THRESHOLD              0.001200 CONVERGED NO
 TTTTTTTTTTTTTTTTTTTTTTTTTTTTTT OPTI        TELAPSE     2018.89 TCPU     1830.71
 *******************************************************************************
 COORDINATE AND CELL OPTIMIZATION - POINT   10
 *******************************************************************************
 LATTICE PARAMETERS (ANGSTROMS AND DEGREES) - BOHR = 0.5291772083 ANGSTROM
 PRIMITIVE CELL - CENTRING CODE 1/0 VOLUME=   139.300276 - DENSITY  1.431 g/cm^3
         A              B              C           ALPHA      BETA       GAMMA 
     5.49935422     5.49935422     4.60604938    90.000000  90.000000  90.000000
 *******************************************************************************
 ATOMS IN THE ASYMMETRIC UNIT    5 - ATOMS IN THE UNIT CELL:   16
     ATOM                 X/A                 Y/B                 Z/C    
 *******************************************************************************
      1 T   6 C     0.000000000000E+00 -5.000000000000E-01  3.195364338460E-01
      2 F   6 C    -5.000000000000E-01  0.000000000000E+00 -3.195364338460E-01
      3 T   8 O     0.000000000000E+00 -5.000000000000E-01 -4.031461754692E-01
      4 F   8 O    -5.000000000000E-01  0.000000000000E+00  4.031461754692E-01
      5 T   7 N     1.475700635196E-01 -3.524299364804E-01  1.673891432477E-01
      6 F   7 N    -1.475700635196E-01  3.524299364804E-01  1.673891432477E-01
      7 F   7 N    -3.524299364804E-01 -1.475700635196E-01 -1.673891432477E-01
      8 F   7 N     3.524299364804E-01  1.475700635196E-01 -1.673891432477E-01
      9 T   1 H     2.622091340810E-01 -2.377908659190E-01  2.738941305938E-01
     10 F   1 H    -2.622091340810E-01  2.377908659190E-01  2.738941305938E-01
     11 F   1 H    -2.377908659190E-01 -2.622091340810E-01 -2.738941305938E-01
     12 F   1 H     2.377908659190E-01  2.622091340810E-01 -2.738941305938E-01
     13 T   1 H     1.441826877056E-01 -3.558173122944E-01 -5.309036949851E-02
     14 F   1 H    -1.441826877056E-01  3.558173122944E-01 -5.309036949851E-02
     15 F   1 H    -3.558173122944E-01 -1.441826877056E-01  5.309036949851E-02
     16 F   1 H     3.558173122944E-01  1.441826877056E-01  5.309036949851E-02

 T = ATOM BELONGING TO THE ASYMMETRIC UNIT

 N OF POINTS AFTER LAST CHANGE:    10

 REFERENCE GEOMETRY WILL BE CHANGED

 TOTAL ENERGY(DFT)(AU)(  7) -4.4997920652613E+02     DE (AU)   -2.264E-05

 SYMMETRY ALLOWED FORCES  (COORDINATE, FORCE)

    1 -2.5502164E-05    2 -1.5378852E-04    3 -3.2674102E-06    4  5.2683066E-05
    5  5.1474481E-05    6 -7.0138707E-05    7 -4.2045680E-05    8  5.1085550E-05
    9 -4.1661738E-05   10  1.2009575E-05

 GRADIENT NORM     0.000202  GRADIENT THRESHOLD     0.500000

 HESSIAN UPDATE SKIPPED

 EIGENVALUES OF THE ESTIMATED HESSIAN
  0.6183E-02  0.1485E-01  0.3656E-01  0.9410E-01  0.1738      0.2519    
  0.7159       1.127       1.302       1.622    

 PREDICTED ENERGY CHANGE    -0.173E-06

 MAX GRADIENT      0.000154  THRESHOLD              0.000450 CONVERGED YES
 RMS GRADIENT      0.000064  THRESHOLD              0.000300 CONVERGED YES
 MAX DISPLAC.      0.002944  THRESHOLD              0.001800 CONVERGED NO
 RMS DISPLAC.      0.001932  THRESHOLD              0.001200 CONVERGED NO
 TTTTTTTTTTTTTTTTTTTTTTTTTTTTTT OPTI        TELAPSE     2211.92 TCPU     2017.44
 *******************************************************************************
 COORDINATE AND CELL OPTIMIZATION - POINT   11
 *******************************************************************************
 LATTICE PARAMETERS (ANGSTROMS AND DEGREES) - BOHR = 0.5291772083 ANGSTROM
 PRIMITIVE CELL - CENTRING CODE 1/0 VOLUME=   139.265719 - DENSITY  1.432 g/cm^3
         A              B              C           ALPHA      BETA       GAMMA 
     5.49867927     5.49867927     4.60603726    90.000000  90.000000  90.000000
 *******************************************************************************
 ATOMS IN THE ASYMMETRIC UNIT    5 - ATOMS IN THE UNIT CELL:   16
     ATOM                 X/A                 Y/B                 Z/C    
 *******************************************************************************
      1 T   6 C     0.000000000000E+00 -5.000000000000E-01  3.193664086987E-01
      2 F   6 C    -5.000000000000E-01  0.000000000000E+00 -3.193664086987E-01
      3 T   8 O     0.000000000000E+00 -5.000000000000E-01 -4.033197249425E-01
      4 F   8 O    -5.000000000000E-01  0.000000000000E+00  4.033197249425E-01
      5 T   7 N     1.475895558639E-01 -3.524104441361E-01  1.672246240555E-01
      6 F   7 N    -1.475895558639E-01  3.524104441361E-01  1.672246240555E-01
      7 F   7 N    -3.524104441361E-01 -1.475895558639E-01 -1.672246240555E-01
      8 F   7 N     3.524104441361E-01  1.475895558639E-01 -1.672246240555E-01
      9 T   1 H     2.622378599350E-01 -2.377621400650E-01  2.737524921219E-01
     10 F   1 H    -2.622378599350E-01  2.377621400650E-01  2.737524921219E-01
     11 F   1 H    -2.377621400650E-01 -2.622378599350E-01 -2.737524921219E-01
     12 F   1 H     2.377621400650E-01  2.622378599350E-01 -2.737524921219E-01
     13 T   1 H     1.441909860106E-01 -3.558090139894E-01 -5.325665925809E-02
     14 F   1 H    -1.441909860106E-01  3.558090139894E-01 -5.325665925809E-02
     15 F   1 H    -3.558090139894E-01 -1.441909860106E-01  5.325665925809E-02
     16 F   1 H     3.558090139894E-01  1.441909860106E-01  5.325665925809E-02

 T = ATOM BELONGING TO THE ASYMMETRIC UNIT

 TOTAL ENERGY(DFT)(AU)(  3) -4.4997920655646E+02     DE (AU)   -3.033E-08

 UPDATED TRUST RADIUS     0.153E-02

 SYMMETRY ALLOWED FORCES  (COORDINATE, FORCE)

    1 -1.9999996E-06    2 -8.9398303E-05    3 -1.5571265E-05    4  4.3924061E-05
    5  2.2115817E-05    6 -6.9380914E-05    7  1.2486838E-06    8  7.3709524E-05
    9 -3.2478838E-05   10  1.7173178E-05

 GRADIENT NORM     0.000149  GRADIENT THRESHOLD     0.500000

 EIGENVALUES OF THE ESTIMATED HESSIAN
  0.6571E-02  0.1425E-01  0.3337E-01  0.8960E-01  0.1692      0.2531    
  0.6700       1.102       1.301       1.617    
 NEWTON STEP ( 0.1678055252E-02) EXCEEDS TRUST RADIUS ( 0.1527652333E-02)
 LEVEL SHIFT     0.1439072955E-02

 PREDICTED ENERGY CHANGE    -0.412E-07

 MAX GRADIENT      0.000089  THRESHOLD              0.000450 CONVERGED YES
 RMS GRADIENT      0.000047  THRESHOLD              0.000300 CONVERGED YES
 MAX DISPLAC.      0.000796  THRESHOLD              0.001800 CONVERGED YES
 RMS DISPLAC.      0.000483  THRESHOLD              0.001200 CONVERGED YES

 CONVERGENCE TESTS SATISFIED AFTER  11 ENERGY AND GRADIENT CALCULATIONS
 +++++++++++++++++++++++++++++++++++++++++++++++++++++++++++++++++++++++++++++++
 FINALRUN OPTION: RE-STARTING OPTIMIZATION
 +++++++++++++++++++++++++++++++++++++++++++++++++++++++++++++++++++++++++++++++
 TTTTTTTTTTTTTTTTTTTTTTTTTTTTTT OPTI        TELAPSE     2376.26 TCPU     2178.09
 *******************************************************************************
 COORDINATE AND CELL OPTIMIZATION - POINT   12
 *******************************************************************************
 LATTICE PARAMETERS (ANGSTROMS AND DEGREES) - BOHR = 0.5291772083 ANGSTROM
 PRIMITIVE CELL - CENTRING CODE 1/0 VOLUME=   139.255112 - DENSITY  1.432 g/cm^3
         A              B              C           ALPHA      BETA       GAMMA 
     5.49836198     5.49836198     4.60621803    90.000000  90.000000  90.000000
 *******************************************************************************
 ATOMS IN THE ASYMMETRIC UNIT    5 - ATOMS IN THE UNIT CELL:   16
     ATOM                 X/A                 Y/B                 Z/C    
 *******************************************************************************
      1 T   6 C     0.000000000000E+00 -5.000000000000E-01  3.193350542685E-01
      2 F   6 C    -5.000000000000E-01  0.000000000000E+00 -3.193350542685E-01
      3 T   8 O     0.000000000000E+00 -5.000000000000E-01 -4.033648768969E-01
      4 F   8 O    -5.000000000000E-01  0.000000000000E+00  4.033648768969E-01
      5 T   7 N     1.475983410974E-01 -3.524016589026E-01  1.672002231529E-01
      6 F   7 N    -1.475983410974E-01  3.524016589026E-01  1.672002231529E-01
      7 F   7 N    -3.524016589026E-01 -1.475983410974E-01 -1.672002231529E-01
      8 F   7 N     3.524016589026E-01  1.475983410974E-01 -1.672002231529E-01
      9 T   1 H     2.622550607220E-01 -2.377449392780E-01  2.737168955805E-01
     10 F   1 H    -2.622550607220E-01  2.377449392780E-01  2.737168955805E-01
     11 F   1 H    -2.377449392780E-01 -2.622550607220E-01 -2.737168955805E-01
     12 F   1 H     2.377449392780E-01  2.622550607220E-01 -2.737168955805E-01
     13 T   1 H     1.441963477662E-01 -3.558036522338E-01 -5.326889622074E-02
     14 F   1 H    -1.441963477662E-01  3.558036522338E-01 -5.326889622074E-02
     15 F   1 H    -3.558036522338E-01 -1.441963477662E-01  5.326889622074E-02
     16 F   1 H     3.558036522338E-01  1.441963477662E-01  5.326889622074E-02

 T = ATOM BELONGING TO THE ASYMMETRIC UNIT

 REFERENCE GEOMETRY WILL BE CHANGED

 TOTAL ENERGY(DFT)(AU)(  3) -4.4997918989545E+02     DE (AU)    1.666E-05

 SYMMETRY ALLOWED FORCES  (COORDINATE, FORCE)

    1  2.3808221E-05    2 -8.5863775E-05    3  3.5165977E-06    4  3.2182666E-05
    5 -2.0586900E-05    6 -5.9781193E-05    7  9.1806937E-06    8  5.2360139E-05
    9 -1.6417648E-05   10  1.7692559E-05

 GRADIENT NORM     0.000128  GRADIENT THRESHOLD     0.500000

 HESSIAN UPDATE SKIPPED

 EIGENVALUES OF THE ESTIMATED HESSIAN
  0.6571E-02  0.1425E-01  0.3337E-01  0.8960E-01  0.1692      0.2531    
  0.6700       1.102       1.301       1.617    

 PREDICTED ENERGY CHANGE    -0.275E-07

 MAX GRADIENT      0.000086  THRESHOLD              0.000450 CONVERGED YES
 RMS GRADIENT      0.000040  THRESHOLD              0.000300 CONVERGED YES
 MAX DISPLAC.      0.000682  THRESHOLD              0.001800 CONVERGED YES
 RMS DISPLAC.      0.000395  THRESHOLD              0.001200 CONVERGED YES

 CONVERGENCE TESTS SATISFIED AFTER  12 ENERGY AND GRADIENT CALCULATIONS

 ******************************************************************
 * OPT END - CONVERGED * E(AU):  -4.499791898954E+02  POINTS   12 *
 ******************************************************************

   BAND GAP:                      7.9299  eV 


 NEIGHBORS OF THE NON-EQUIVALENT ATOMS

 N = NUMBER OF NEIGHBORS AT DISTANCE R
    ATOM  N     R/ANG      R/AU   NEIGHBORS (ATOM LABELS AND CELL INDICES)
   1 C    1     1.2773     2.4138    3 O    0 0 1
   1 C    2     1.3447     2.5412    5 N    0 1 0    6 N    0 0 0
   1 C    2     2.0501     3.8740    9 H    0 1 0   10 H    0 0 0
   1 C    2     2.0501     3.8741   13 H    0 1 0   14 H    0 0 0
   1 C    2     2.6327     4.9752   11 H    0 1 1   12 H    0 0 1
   1 C    2     3.0260     5.7183   15 H    0 1 0   16 H    0 0 0

   3 O    1     1.2773     2.4138    1 C    0 0-1
   3 O    2     1.9427     3.6712   11 H    0 1 0   12 H    0 0 0
   3 O    2     1.9641     3.7116   13 H    0 1 0   14 H    0 0 0
   3 O    2     2.2869     4.3216    5 N    0 1-1    6 N    0 0-1
   3 O    2     2.5241     4.7698    9 H    0 1-1   10 H    0 0-1
   3 O    2     2.8678     5.4194    5 N    0 1 0    6 N    0 0 0

   5 N    1     1.0159     1.9197   13 H    0 0 0
   5 N    1     1.0176     1.9231    9 H    0 0 0
   5 N    1     1.3447     2.5412    1 C    0-1 0
   5 N    1     2.2869     4.3216    3 O    0-1 1
   5 N    1     2.2954     4.3377    6 N    0-1 0
   5 N    1     2.4859     4.6976   14 H    0-1 0

   9 H    1     1.0176     1.9231    5 N    0 0 0
   9 H    1     1.7639     3.3333   13 H    0 0 0
   9 H    1     1.9427     3.6712    4 O    0 0 0
   9 H    1     2.0501     3.8740    1 C    0-1 0
   9 H    2     2.3887     4.5140   15 H    1 0 0   16 H    0 0 0
   9 H    1     2.5241     4.7698    3 O    0-1 1

  13 H    1     1.0159     1.9197    5 N    0 0 0
  13 H    1     1.7639     3.3333    9 H    0 0 0
  13 H    1     1.9641     3.7116    3 O    0-1 0
  13 H    1     2.0501     3.8741    1 C    0-1 0
  13 H    1     2.2425     4.2377   14 H    0-1 0
  13 H    2     2.3887     4.5140   11 H    0 0 0   12 H    0-1 0

 TTTTTTTTTTTTTTTTTTTTTTTTTTTTTT AFTER FIRST TELAPSE     2588.98 TCPU     2365.93
 MMMMMMMMMMMMMMMMMMMMMMMMMMMMMMMMMMMMMMMMMMMMMMMMMMMMMMMMMMMMMMMMMMMMMMMMMMMMMMM
     ALPHA+BETA ELECTRONS
 MULLIKEN POPULATION ANALYSIS - NO. OF ELECTRONS   64.000000

  ATOM    Z CHARGE  A.O. POPULATION

   1 C    6  5.081  1.995  0.407  0.494  0.494  0.580  0.382  0.291  0.291
                    0.021  0.025  0.036  0.036  0.021  0.010
   2 C    6  5.081  1.995  0.407  0.494  0.494  0.580  0.382  0.291  0.291
                    0.021  0.025  0.036  0.036  0.021  0.010
   3 O    8  8.609  1.996  0.420  0.756  0.756  0.624  1.505  0.902  0.902
                    0.721  0.013  0.006  0.006  0.000  0.000
   4 O    8  8.609  1.996  0.420  0.756  0.756  0.624  1.505  0.902  0.902
                    0.721  0.013  0.006  0.006  0.000  0.000
   5 N    7  7.590  1.995  0.373  0.665  0.665  0.605  1.215  0.741  0.741
                    0.572  0.004  0.004  0.004  0.003  0.004
   6 N    7  7.590  1.995  0.373  0.665  0.665  0.605  1.215  0.741  0.741
                    0.572  0.004  0.004  0.004  0.003  0.004
   7 N    7  7.590  1.995  0.373  0.665  0.665  0.605  1.215  0.741  0.741
                    0.572  0.004  0.004  0.004  0.003  0.004
   8 N    7  7.590  1.995  0.373  0.665  0.665  0.605  1.215  0.741  0.741
                    0.572  0.004  0.004  0.004  0.003  0.004
   9 H    1  0.783  0.436  0.313  0.013  0.013  0.008
  10 H    1  0.783  0.436  0.313  0.013  0.013  0.008
  11 H    1  0.783  0.436  0.313  0.013  0.013  0.008
  12 H    1  0.783  0.436  0.313  0.013  0.013  0.008
  13 H    1  0.782  0.438  0.309  0.005  0.005  0.024
  14 H    1  0.782  0.438  0.309  0.005  0.005  0.024
  15 H    1  0.782  0.438  0.309  0.005  0.005  0.024
  16 H    1  0.782  0.438  0.309  0.005  0.005  0.024

  ATOM    Z CHARGE  SHELL POPULATION

   1 C    6  5.081  1.995  1.975  0.984  0.127
   2 C    6  5.081  1.995  1.975  0.984  0.127
   3 O    8  8.609  1.996  2.556  4.030  0.027
   4 O    8  8.609  1.996  2.556  4.030  0.027
   5 N    7  7.590  1.995  2.307  3.269  0.019
   6 N    7  7.590  1.995  2.307  3.269  0.019
   7 N    7  7.590  1.995  2.307  3.269  0.019
   8 N    7  7.590  1.995  2.307  3.269  0.019
   9 H    1  0.783  0.436  0.313  0.035
  10 H    1  0.783  0.436  0.313  0.035
  11 H    1  0.783  0.436  0.313  0.035
  12 H    1  0.783  0.436  0.313  0.035
  13 H    1  0.782  0.438  0.309  0.034
  14 H    1  0.782  0.438  0.309  0.034
  15 H    1  0.782  0.438  0.309  0.034
  16 H    1  0.782  0.438  0.309  0.034

 OVERLAP POPULATION CONDENSED TO ATOMS FOR FIRST   6 NEIGHBORS

 ATOM A   1 C    ATOM B     CELL      R(AB)/AU R(AB)/ANG    OVPOP(AB)
                  3 O    (  0  0  1)     2.414     1.277     0.460
                  5 N    (  0  1  0)     2.541     1.345     0.326
                  9 H    (  0  1  0)     3.874     2.050    -0.028
                 13 H    (  0  1  0)     3.874     2.050    -0.028
                 11 H    (  0  1  1)     4.975     2.633     0.002
                 15 H    (  0  1  0)     5.718     3.026     0.002

 ATOM A   3 O    ATOM B     CELL      R(AB)/AU R(AB)/ANG    OVPOP(AB)
                  1 C    (  0  0 -1)     2.414     1.277     0.460
                 11 H    (  0  1  0)     3.671     1.943     0.056
                 13 H    (  0  1  0)     3.712     1.964     0.050
                  5 N    (  0  1 -1)     4.322     2.287    -0.052
                  9 H    (  0  1 -1)     4.770     2.524     0.002
                  5 N    (  0  1  0)     5.419     2.868    -0.009

 ATOM A   5 N    ATOM B     CELL      R(AB)/AU R(AB)/ANG    OVPOP(AB)
                 13 H    (  0  0  0)     1.920     1.016     0.310
                  9 H    (  0  0  0)     1.923     1.018     0.307
                  1 C    (  0 -1  0)     2.541     1.345     0.326
                  3 O    (  0 -1  1)     4.322     2.287    -0.052
                  6 N    (  0 -1  0)     4.338     2.295    -0.075
                 14 H    (  0 -1  0)     4.698     2.486    -0.001

 ATOM A   9 H    ATOM B     CELL      R(AB)/AU R(AB)/ANG    OVPOP(AB)
                  5 N    (  0  0  0)     1.923     1.018     0.307
                 13 H    (  0  0  0)     3.333     1.764    -0.019
                  4 O    (  0  0  0)     3.671     1.943     0.056
                  1 C    (  0 -1  0)     3.874     2.050    -0.028
                 15 H    (  1  0  0)     4.514     2.389     0.001
                  3 O    (  0 -1  1)     4.770     2.524     0.002

 ATOM A  13 H    ATOM B     CELL      R(AB)/AU R(AB)/ANG    OVPOP(AB)
                  5 N    (  0  0  0)     1.920     1.016     0.310
                  9 H    (  0  0  0)     3.333     1.764    -0.019
                  3 O    (  0 -1  0)     3.712     1.964     0.050
                  1 C    (  0 -1  0)     3.874     2.050    -0.028
                 14 H    (  0 -1  0)     4.238     2.243    -0.007
                 11 H    (  0  0  0)     4.514     2.389     0.001
 EIGENVECTORS IN FORTRAN UNIT  8

 FINAL OPTIMIZED GEOMETRY - DIMENSIONALITY OF THE SYSTEM      3
 (NON PERIODIC DIRECTION: LATTICE PARAMETER FORMALLY SET TO 500)
 *******************************************************************************
 LATTICE PARAMETERS (ANGSTROMS AND DEGREES) - BOHR = 0.5291772083 ANGSTROM
 PRIMITIVE CELL - CENTRING CODE 1/0 VOLUME=   139.255112 - DENSITY  1.432 g/cm^3
         A              B              C           ALPHA      BETA       GAMMA 
     5.49836198     5.49836198     4.60621803    90.000000  90.000000  90.000000
 *******************************************************************************
 ATOMS IN THE ASYMMETRIC UNIT    5 - ATOMS IN THE UNIT CELL:   16
     ATOM                 X/A                 Y/B                 Z/C    
 *******************************************************************************
      1 T   6 C     0.000000000000E+00 -5.000000000000E-01  3.193350542685E-01
      2 F   6 C    -5.000000000000E-01  0.000000000000E+00 -3.193350542685E-01
      3 T   8 O     0.000000000000E+00 -5.000000000000E-01 -4.033648768969E-01
      4 F   8 O    -5.000000000000E-01  0.000000000000E+00  4.033648768969E-01
      5 T   7 N     1.475983410974E-01 -3.524016589026E-01  1.672002231529E-01
      6 F   7 N    -1.475983410974E-01  3.524016589026E-01  1.672002231529E-01
      7 F   7 N    -3.524016589026E-01 -1.475983410974E-01 -1.672002231529E-01
      8 F   7 N     3.524016589026E-01  1.475983410974E-01 -1.672002231529E-01
      9 T   1 H     2.622550607220E-01 -2.377449392780E-01  2.737168955805E-01
     10 F   1 H    -2.622550607220E-01  2.377449392780E-01  2.737168955805E-01
     11 F   1 H    -2.377449392780E-01 -2.622550607220E-01 -2.737168955805E-01
     12 F   1 H     2.377449392780E-01  2.622550607220E-01 -2.737168955805E-01
     13 T   1 H     1.441963477662E-01 -3.558036522338E-01 -5.326889622074E-02
     14 F   1 H    -1.441963477662E-01  3.558036522338E-01 -5.326889622074E-02
     15 F   1 H    -3.558036522338E-01 -1.441963477662E-01  5.326889622074E-02
     16 F   1 H     3.558036522338E-01  1.441963477662E-01  5.326889622074E-02

 T = ATOM BELONGING TO THE ASYMMETRIC UNIT
 INFORMATION **** fort.34 **** GEOMETRY OUTPUT FILE

 DIRECT LATTICE VECTORS CARTESIAN COMPONENTS (ANGSTROM)
          X                    Y                    Z
   0.549836198041E+01   0.000000000000E+00   0.000000000000E+00
   0.000000000000E+00   0.549836198041E+01   0.000000000000E+00
   0.000000000000E+00   0.000000000000E+00   0.460621802647E+01


 CARTESIAN COORDINATES - PRIMITIVE CELL
 *******************************************************************************
 *      ATOM          X(ANGSTROM)         Y(ANGSTROM)         Z(ANGSTROM)
 *******************************************************************************
    1     6 C     0.000000000000E+00  2.749180990207E+00  1.470926883457E+00
    2     6 C     2.749180990207E+00  0.000000000000E+00 -1.470926883457E+00
    3     8 O     0.000000000000E+00  2.749180990207E+00 -1.857986567209E+00
    4     8 O     2.749180990207E+00  0.000000000000E+00  1.857986567209E+00
    5     7 N     8.115491070621E-01 -1.937631883145E+00  7.701606819172E-01
    6     7 N    -8.115491070621E-01  1.937631883145E+00  7.701606819172E-01
    7     7 N    -1.937631883145E+00 -8.115491070621E-01 -7.701606819172E-01
    8     7 N     1.937631883145E+00  8.115491070621E-01 -7.701606819172E-01
    9     1 H     1.441973255045E+00 -1.307207735162E+00  1.260799698574E+00
   10     1 H    -1.441973255045E+00  1.307207735162E+00  1.260799698574E+00
   11     1 H    -1.307207735162E+00 -1.441973255045E+00 -1.260799698574E+00
   12     1 H     1.307207735162E+00  1.441973255045E+00 -1.260799698574E+00
   13     1 H     7.928437162722E-01 -1.956337273935E+00 -2.453681500223E-01
   14     1 H    -7.928437162722E-01  1.956337273935E+00 -2.453681500223E-01
   15     1 H    -1.956337273935E+00 -7.928437162722E-01  2.453681500223E-01
   16     1 H     1.956337273935E+00  7.928437162722E-01  2.453681500223E-01

 ****    8 SYMMOPS - TRANSLATORS IN FRACTIONAL UNITS
 **** MATRICES AND TRANSLATORS IN THE CRYSTALLOGRAPHIC REFERENCE FRAME
   V INV                    ROTATION MATRICES                   TRANSLATORS
   1   1  1.00  0.00  0.00  0.00  1.00  0.00  0.00  0.00  1.00  0.00  0.00  0.00
   2   2 -1.00  0.00  0.00  0.00 -1.00  0.00  0.00  0.00  1.00  0.00  0.00  0.00
   3   3  1.00  0.00  0.00  0.00 -1.00  0.00  0.00  0.00 -1.00  0.50  0.50  0.00
   4   4 -1.00  0.00  0.00  0.00  1.00  0.00  0.00  0.00 -1.00  0.50  0.50  0.00
   5   5  0.00  1.00  0.00  1.00  0.00  0.00  0.00  0.00  1.00  0.50  0.50  0.00
   6   6  0.00 -1.00  0.00 -1.00  0.00  0.00  0.00  0.00  1.00  0.50  0.50  0.00
   7   8  0.00 -1.00  0.00  1.00  0.00  0.00  0.00  0.00 -1.00  0.00  0.00  0.00
   8   7  0.00  1.00  0.00 -1.00  0.00  0.00  0.00  0.00 -1.00  0.00  0.00  0.00
 TTTTTTTTTTTTTTTTTTTTTTTTTTTTTT END         TELAPSE     2589.06 TCPU     2366.00
 EEEEEEEEEE TERMINATION  DATE 24 09 2020 TIME 16:03:37.8
