
         
 *******************************************************************************
 *                                                                             *
 *                               CRYSTAL23                                     *
 *                      public : 1.0.1 - October 2022                          *
 *                       HTTP://WWW.CRYSTAL.UNITO.IT                           *
 *                                                                             *
 *                              MAIN AUTHORS                                   *
 *                                                                             *
 *  R. DOVESI(1,11), V.R. SAUNDERS(2), C. ROETTI(1,11), R. ORLANDO(1,11),      *
 *  C.M. ZICOVICH-WILSON(1,3), F. PASCALE(4), B. CIVALLERI(1,11),              *
 *  K. DOLL(5), N.M. HARRISON(6), I.J. BUSH(7), Ph. D'ARCO(8),                 *
 *  M. LLUNELL(9), M. CAUSA'(10), Y. NOEL(8), L. MASCHIO(1,11), A. ERBA(1,11)  *
 *  M. RE'RAT(14), S. CASASSA(1,11), B.G. SEARLE(2), J.K. DESMARAIS(1)         *
 *                                                                             *
 *        CONTRIBUTIONS TO THE CODE HAVE ALSO BEEN GIVEN BY                    *
 *                                                                             *
 *  M. FERRABONE(1,11), M. DE LA PIERRE(1,11), M. FERRERO(1,11),               *
 *  J. BAIMA(1,11), E. ALBANESE(1,11), M.F. PEINTINGER(12), R. BAST(13),       *
 *  B. KIRTMAN(15), V. LACIVITA(1,11), R. DEMICHELIS(1,16)                     *
 *  G. BRANDEBURG(17), S. SALUSTRO(1,11), G. SANSONE(1,11)                     *
 *  M.T. RUGGIERO(18), L.E. DAGA(1), L. DONA'(1), A. COSSARD(1)                *
 *                                                                             *
 * (1) THEORETICAL CHEMISTRY GROUP - UNIVERSITA' DI TORINO - TORINO (ITALY)    *
 * (2) SCIENTIFIC COMPUTING DEPARTMENT - STFC DARESBURY (UK)                   *
 * (3) UNIVERSIDAD AUTONOMA DEL ESTADO DE MORELOS - CUERNAVACA (MEXICO)        *
 * (4) UNIVERSITE' DE LORRAINE - NANCY (FRANCE)                                *
 * (5) UNIVERSITAET STUTTGART- STUTTGART (GERMANY)                             *
 * (6) IMPERIAL COLLEGE - LONDON (UK)                                          *
 * (7) SCIENTIFIC COMPUTING DEPARTMENT - STFC RAL (UK)                         *
 * (8) UPMC - SORBONNE UNIVERSITES - PARIS (FRANCE)                            *
 * (9) UNIVERSIDAD DE BARCELONA - BARCELONA (SPAIN)                            *
 *(10) UNIVERSITA' DI NAPOLI "FEDERICO II" - NAPOLI (ITALY)                    *
 *(11) NIS - NANOSTRUCTURED INTERFACES AND SURFACES - TORINO (ITALY)           *
 *(12) MPI FUER CHEMISCHE ENERGIEKONVERSION - MUELHEIM AN DER RUHR (GERMANY)   *
 *(13) UNIVERSITY OF TROMSO - TROMSO (NORWAY)                                  *
 *(14) UNIVERSITE' DE PAU ET DES PAYS DE L'ADOUR - PAU (FRANCE)                *
 *(15) UNIVERSITY OF CALIFORNIA SANTA BARBARA - SANTA BARBARA (USA)            *
 *(16) CURTIN UNIVERSITY - PERTH (AUSTRALIA)                                   *
 *(17) UNIVERSITY COLLEGE LONDON - LONDON (UK)                                 *
 *(18) UNIVERSITY OF VERMONT - BURLINGTON (USA)                                *
 *                                                                             *
 *******************************************************************************
 EEEEEEEEEE STARTING  DATE 16 09 2024 TIME 12:02:37.6
 BERILLIUM BULK                                                                  

 CRYSTAL CALCULATION
 (INPUT ACCORDING TO THE INTERNATIONAL TABLES FOR X-RAY CRYSTALLOGRAPHY)
 CRYSTAL FAMILY                       :  HEXAGONAL   
 CRYSTAL CLASS  (GROTH - 1921)        :  DIHEXAGONAL DIPYRAMIDAL              

 SPACE GROUP (CENTROSYMMETRIC)        :  P 63/M M C      

 LATTICE PARAMETERS  (ANGSTROMS AND DEGREES) - CONVENTIONAL CELL
        A           B           C        ALPHA        BETA       GAMMA
     2.29000     2.29000     3.59000    90.00000    90.00000   120.00000


 NUMBER OF IRREDUCIBLE ATOMS IN THE CONVENTIONAL CELL:    1

 INPUT COORDINATES

 ATOM AT. N.              COORDINATES
   1   4     3.333333333330E-01  6.666666666670E-01  2.500000000000E-01

 *******************************************************************************

 << INFORMATION >>: FROM NOW ON, ALL COORDINATES REFER TO THE PRIMITIVE CELL

 *******************************************************************************

 LATTICE PARAMETERS  (ANGSTROMS AND DEGREES) - PRIMITIVE CELL
       A          B          C        ALPHA      BETA     GAMMA        VOLUME
    2.29000    2.29000    3.59000    90.00000  90.00000 120.00000     16.304071

 COORDINATES OF THE EQUIVALENT ATOMS (FRACTIONAL UNITS)

 N. ATOM EQUIV AT. N.          X                  Y                  Z

   1   1   1    4 BE    3.33333333333E-01 -3.33333333333E-01  2.50000000000E-01
   2   1   2    4 BE   -3.33333333333E-01  3.33333333333E-01 -2.50000000000E-01

 NUMBER OF SYMMETRY OPERATORS         :   24
 *******************************************************************************
 * GEOMETRY EDITING - INPUT COORDINATES ARE GIVEN IN ANGSTROM         
 *******************************************************************************

 GEOMETRY NOW FULLY CONSISTENT WITH THE GROUP

 GCALCO - MAX INDICES DIRECT LATTICE VECTOR    18    18     9
 NO.OF VECTORS CREATED 6999 STARS  372 RMAX    56.80741 BOHR

 STAR N.   2 N. OF VECTORS   6 R=  4.3274728E+00

 STAR N.   3 N. OF VECTORS   2 R=  6.7841168E+00

 *******************************************************************************
 ATOM COORDINATES 
 *******************************************************************************
                    ANGSTROM                               FRACTIONAL
  ATOM       X          Y          Z                X          Y          Z
 *******************************************************************************
   1 BE -1.3221E+00  2.3134E-17  8.9750E-01  -6.6667E-01 -3.3333E-01  2.5000E-01
   2 BE -6.6107E-01 -1.1450E+00 -8.9750E-01  -3.3333E-01 -6.6667E-01 -2.5000E-01
   3 BE -3.3053E+00 -1.1450E+00  8.9750E-01  -1.6667E+00 -1.3333E+00  2.5000E-01
   4 BE -2.6443E+00 -2.2900E+00 -8.9750E-01  -1.3333E+00 -1.6667E+00 -2.5000E-01
   5 BE  6.6107E-01  1.1450E+00  8.9750E-01   3.3333E-01  6.6667E-01  2.5000E-01
   6 BE  1.3221E+00  0.0000E+00 -8.9750E-01   6.6667E-01  3.3333E-01 -2.5000E-01
   7 BE -3.3053E+00  1.1450E+00  8.9750E-01  -1.6667E+00 -3.3333E-01  2.5000E-01
   8 BE -2.6443E+00  0.0000E+00 -8.9750E-01  -1.3333E+00 -6.6667E-01 -2.5000E-01
   9 BE  6.6107E-01 -1.1450E+00  8.9750E-01   3.3333E-01 -3.3333E-01  2.5000E-01
  10 BE  1.3221E+00 -2.2900E+00 -8.9750E-01   6.6667E-01 -6.6667E-01 -2.5000E-01
  11 BE -1.3221E+00 -2.2900E+00  8.9750E-01  -6.6667E-01 -1.3333E+00  2.5000E-01
  12 BE -6.6107E-01 -3.4350E+00 -8.9750E-01  -3.3333E-01 -1.6667E+00 -2.5000E-01
  13 BE -1.3221E+00  2.2900E+00  8.9750E-01  -6.6667E-01  6.6667E-01  2.5000E-01
  14 BE -6.6107E-01  1.1450E+00 -8.9750E-01  -3.3333E-01  3.3333E-01 -2.5000E-01
  15 BE -1.3221E+00  2.3134E-17 -2.6925E+00  -6.6667E-01 -3.3333E-01 -7.5000E-01
  16 BE -6.6107E-01 -1.1450E+00 -4.4875E+00  -3.3333E-01 -6.6667E-01 -1.2500E+00
  17 BE -1.3221E+00  2.3134E-17  4.4875E+00  -6.6667E-01 -3.3333E-01  1.2500E+00
  18 BE -6.6107E-01 -1.1450E+00  2.6925E+00  -3.3333E-01 -6.6667E-01  7.5000E-01

 GEOMETRY FOR WAVE FUNCTION - DIMENSIONALITY OF THE SYSTEM    3
 (NON PERIODIC DIRECTION: LATTICE PARAMETER FORMALLY SET TO 500)
 *******************************************************************************
 LATTICE PARAMETERS (ANGSTROMS AND DEGREES) - BOHR = 0.5291772083 ANGSTROM
 PRIMITIVE CELL - CENTRING CODE 1/0 VOLUME=    16.304071 - DENSITY  1.836 g/cm^3
         A              B              C           ALPHA      BETA       GAMMA 
     2.29000000     2.29000000     3.59000000    90.000000  90.000000 120.000000
 *******************************************************************************
 ATOMS IN THE ASYMMETRIC UNIT    1 - ATOMS IN THE UNIT CELL:    2
     ATOM                 X/A                 Y/B                 Z/C    
 *******************************************************************************
      1 T   4 BE    3.333333333333E-01 -3.333333333333E-01  2.500000000000E-01
      2 F   4 BE   -3.333333333333E-01  3.333333333333E-01 -2.500000000000E-01

 T = ATOM BELONGING TO THE ASYMMETRIC UNIT

 ****   24 SYMMOPS - TRANSLATORS IN FRACTIONAL UNITS
 **** MATRICES AND TRANSLATORS IN THE CRYSTALLOGRAPHIC REFERENCE FRAME
   V INV                    ROTATION MATRICES                   TRANSLATORS
   1   1  1.00  0.00  0.00  0.00  1.00  0.00  0.00  0.00  1.00  0.00  0.00  0.00
   2   2 -1.00  0.00  0.00 -0.00 -1.00  0.00  0.00  0.00  1.00  0.00  0.00  0.50
   3   4 -0.00 -1.00  0.00  1.00 -1.00  0.00  0.00  0.00  1.00  0.00  0.00  0.00
   4   3 -1.00  1.00  0.00 -1.00  0.00  0.00  0.00  0.00  1.00  0.00  0.00  0.00
   5   6  1.00 -1.00  0.00  1.00 -0.00  0.00  0.00  0.00  1.00  0.00  0.00  0.50
   6   5  0.00  1.00  0.00 -1.00  1.00  0.00  0.00  0.00  1.00  0.00  0.00  0.50
   7   7  1.00 -1.00  0.00  0.00 -1.00  0.00  0.00  0.00 -1.00  0.00  0.00  0.00
   8   8 -1.00  0.00  0.00 -1.00  1.00  0.00  0.00  0.00 -1.00  0.00  0.00  0.00
   9   9  0.00  1.00  0.00  1.00  0.00  0.00  0.00  0.00 -1.00  0.00  0.00  0.00
  10  10 -0.00 -1.00  0.00 -1.00 -0.00  0.00  0.00  0.00 -1.00  0.00  0.00  0.50
  11  11  1.00  0.00  0.00  1.00 -1.00  0.00  0.00  0.00 -1.00  0.00  0.00  0.50
  12  12 -1.00  1.00  0.00 -0.00  1.00  0.00  0.00  0.00 -1.00  0.00  0.00  0.50
  13  13 -1.00  0.00  0.00 -0.00 -1.00  0.00  0.00  0.00 -1.00  0.00  0.00  0.00
  14  14  1.00  0.00  0.00  0.00  1.00  0.00  0.00  0.00 -1.00  0.00  0.00  0.50
  15  16  0.00  1.00  0.00 -1.00  1.00  0.00  0.00  0.00 -1.00  0.00  0.00  0.00
  16  15  1.00 -1.00  0.00  1.00 -0.00  0.00  0.00  0.00 -1.00  0.00  0.00  0.00
  17  18 -1.00  1.00  0.00 -1.00  0.00  0.00  0.00  0.00 -1.00  0.00  0.00  0.50
  18  17 -0.00 -1.00  0.00  1.00 -1.00  0.00  0.00  0.00 -1.00  0.00  0.00  0.50
  19  19 -1.00  1.00  0.00 -0.00  1.00  0.00  0.00  0.00  1.00  0.00  0.00  0.00
  20  20  1.00  0.00  0.00  1.00 -1.00  0.00  0.00  0.00  1.00  0.00  0.00  0.00
  21  21 -0.00 -1.00  0.00 -1.00 -0.00  0.00  0.00  0.00  1.00  0.00  0.00  0.00
  22  22  0.00  1.00  0.00  1.00  0.00  0.00  0.00  0.00  1.00  0.00  0.00  0.50
  23  23 -1.00  0.00  0.00 -1.00  1.00  0.00  0.00  0.00  1.00  0.00  0.00  0.50
  24  24  1.00 -1.00  0.00  0.00 -1.00  0.00  0.00  0.00  1.00  0.00  0.00  0.50

 DIRECT LATTICE VECTORS CARTESIAN COMPONENTS (ANGSTROM)
          X                    Y                    Z
   0.198319817467E+01  -0.114500000000E+01   0.000000000000E+00
   0.000000000000E+00   0.229000000000E+01   0.000000000000E+00
   0.000000000000E+00   0.000000000000E+00   0.359000000000E+01


 CARTESIAN COORDINATES - PRIMITIVE CELL
 *******************************************************************************
 *      ATOM          X(ANGSTROM)         Y(ANGSTROM)         Z(ANGSTROM)
 *******************************************************************************
    1     4 BE   -1.322132116444E+00  2.313432777197E-17  8.975000000000E-01
    2     4 BE   -6.610660582221E-01 -1.145000000000E+00 -8.975000000000E-01

 *******************************************************************************
 LOCAL ATOMIC FUNCTIONS BASIS SET
 *******************************************************************************
   ATOM   X(AU)   Y(AU)   Z(AU)  N. TYPE  EXPONENT  S COEF   P COEF   D/F/G COEF
 *******************************************************************************
   1 BE  -2.498   0.000   1.696
                                  1 S  
                                         1.200E+03 1.559E-03 0.000E+00 0.000E+00
                                         4.000E+02 3.605E-03 0.000E+00 0.000E+00
                                         1.200E+02 1.977E-02 0.000E+00 0.000E+00
                                         3.200E+01 8.344E-02 0.000E+00 0.000E+00
                                         1.000E+01 2.872E-01 0.000E+00 0.000E+00
                                  2 S  
                                         3.000E+00 1.000E+00 0.000E+00 0.000E+00
                           3-     6 SP 
                                         8.500E-01 1.000E+00 1.000E+00 0.000E+00
                           7-    10 SP 
                                         2.500E-01 1.000E+00 1.000E+00 0.000E+00
   2 BE  -1.249  -2.164  -1.696
 ERROR **** TESTBS **** BASIS SET INPUT TEST
 TTTTTTTTTTTTTTTTTTTTTTTTTTTTTT ERR         TELAPSE        0.06 TCPU        0.06
