Pcrystal executable in: /home/erba/Ambrogio/SVN_PUB_1335/bin/Linux_ifort_openmpi_i64_clut_new/mkl/Pcrystal
Master system: Linux node80 4.19.0-8-amd64 #1 SMP Debian 4.19.98-1 (2020-01-26) x86_64 GNU/Linux
================================================================================
Starting Pcrystal SLURM job
================================================================================
Time: Thu 05 Sep 2024 10:13:37 AM CEST
SLURM job ID: 473376
Master hostname: node80
User: erba
mpirun executable in: /opt/openmpi-4.1.1-i21.4/bin/mpirun
Input file: mgo_phon_disp_base_new.d12
Output file: /home/erba/Ambrogio/MSSC2024/phonon_dispersion/mgo_phon_disp_base_new.out
Number of processors: 40
Nodes list: node[80-81]
================================================================================
Creating temporary directory /scratch/tmp_p4665_erba on each node...
Copying input file mgo_phon_disp_base_new.d12 on each node...
Copying Pcrystal on each node...
================================================================================
Contents of input file:
TEST11 - MGO BULK B3-LYP
CRYSTAL
0 0 0
 225
3.95573171
2
 12 0.    0.    0.
  8 0.5   0.5   0.5
SCELPHONO
2 0 0
0 2 0
0 0 2
FREQCALC
DISPERSI
END
END
8 2
1 0 3  2.  0.
1 1 3  6.  0.
12 3
1 0 3  2.  0.
1 1 3  8.  0.
1 1 3  2.  0.
99   0
END
DFT
B3LYP
END
SHRINK
8 8
TOLDEE
10
END

================================================================================
Time: Thu 05 Sep 2024 10:13:41 AM CEST
Starting Pcrystal job in /scratch/tmp_p4665_erba on each node...
================================================================================
          40 PROCESSORS WORKING
 Default number of threads is:            2

         
 *******************************************************************************
 *                                                                             *
 *                               CRYSTAL23                                     *
 *                      public : 1.0.1 - October 2022                          *
 *                       HTTP://WWW.CRYSTAL.UNITO.IT                           *
 *                                                                             *
 *                              MAIN AUTHORS                                   *
 *                                                                             *
 *  R. DOVESI(1,11), V.R. SAUNDERS(2), C. ROETTI(1,11), R. ORLANDO(1,11),      *
 *  C.M. ZICOVICH-WILSON(1,3), F. PASCALE(4), B. CIVALLERI(1,11),              *
 *  K. DOLL(5), N.M. HARRISON(6), I.J. BUSH(7), Ph. D'ARCO(8),                 *
 *  M. LLUNELL(9), M. CAUSA'(10), Y. NOEL(8), L. MASCHIO(1,11), A. ERBA(1,11)  *
 *  M. RE'RAT(14), S. CASASSA(1,11), B.G. SEARLE(2), J.K. DESMARAIS(1)         *
 *                                                                             *
 *        CONTRIBUTIONS TO THE CODE HAVE ALSO BEEN GIVEN BY                    *
 *                                                                             *
 *  M. FERRABONE(1,11), M. DE LA PIERRE(1,11), M. FERRERO(1,11),               *
 *  J. BAIMA(1,11), E. ALBANESE(1,11), M.F. PEINTINGER(12), R. BAST(13),       *
 *  B. KIRTMAN(15), V. LACIVITA(1,11), R. DEMICHELIS(1,16)                     *
 *  G. BRANDEBURG(17), S. SALUSTRO(1,11), G. SANSONE(1,11)                     *
 *  M.T. RUGGIERO(18), L.E. DAGA(1), L. DONA'(1), A. COSSARD(1)                *
 *                                                                             *
 * (1) THEORETICAL CHEMISTRY GROUP - UNIVERSITA' DI TORINO - TORINO (ITALY)    *
 * (2) SCIENTIFIC COMPUTING DEPARTMENT - STFC DARESBURY (UK)                   *
 * (3) UNIVERSIDAD AUTONOMA DEL ESTADO DE MORELOS - CUERNAVACA (MEXICO)        *
 * (4) UNIVERSITE' DE LORRAINE - NANCY (FRANCE)                                *
 * (5) UNIVERSITAET STUTTGART- STUTTGART (GERMANY)                             *
 * (6) IMPERIAL COLLEGE - LONDON (UK)                                          *
 * (7) SCIENTIFIC COMPUTING DEPARTMENT - STFC RAL (UK)                         *
 * (8) UPMC - SORBONNE UNIVERSITES - PARIS (FRANCE)                            *
 * (9) UNIVERSIDAD DE BARCELONA - BARCELONA (SPAIN)                            *
 *(10) UNIVERSITA' DI NAPOLI "FEDERICO II" - NAPOLI (ITALY)                    *
 *(11) NIS - NANOSTRUCTURED INTERFACES AND SURFACES - TORINO (ITALY)           *
 *(12) MPI FUER CHEMISCHE ENERGIEKONVERSION - MUELHEIM AN DER RUHR (GERMANY)   *
 *(13) UNIVERSITY OF TROMSO - TROMSO (NORWAY)                                  *
 *(14) UNIVERSITE' DE PAU ET DES PAYS DE L'ADOUR - PAU (FRANCE)                *
 *(15) UNIVERSITY OF CALIFORNIA SANTA BARBARA - SANTA BARBARA (USA)            *
 *(16) CURTIN UNIVERSITY - PERTH (AUSTRALIA)                                   *
 *(17) UNIVERSITY COLLEGE LONDON - LONDON (UK)                                 *
 *(18) UNIVERSITY OF VERMONT - BURLINGTON (USA)                                *
 *                                                                             *
 *******************************************************************************
 EEEEEEEEEE STARTING  DATE 05 09 2024 TIME 10:13:42.3
 TEST11 - MGO BULK B3-LYP                                                        

 CRYSTAL CALCULATION
 (INPUT ACCORDING TO THE INTERNATIONAL TABLES FOR X-RAY CRYSTALLOGRAPHY)
 CRYSTAL FAMILY                       :  CUBIC       
 CRYSTAL CLASS  (GROTH - 1921)        :  CUBIC HEXAKISOCTAHEDRAL              

 SPACE GROUP (CENTROSYMMETRIC)        :  F M 3 M         

 LATTICE PARAMETERS  (ANGSTROMS AND DEGREES) - CONVENTIONAL CELL
        A           B           C        ALPHA        BETA       GAMMA
     3.95573     3.95573     3.95573    90.00000    90.00000    90.00000


 NUMBER OF IRREDUCIBLE ATOMS IN THE CONVENTIONAL CELL:    2

 INPUT COORDINATES

 ATOM AT. N.              COORDINATES
   1  12     0.000000000000E+00  0.000000000000E+00  0.000000000000E+00
   2   8     5.000000000000E-01  5.000000000000E-01  5.000000000000E-01

 *******************************************************************************

 << INFORMATION >>: FROM NOW ON, ALL COORDINATES REFER TO THE PRIMITIVE CELL

 *******************************************************************************

 LATTICE PARAMETERS  (ANGSTROMS AND DEGREES) - PRIMITIVE CELL
       A          B          C        ALPHA      BETA     GAMMA        VOLUME
    2.79712    2.79712    2.79712    60.00000  60.00000  60.00000     15.474638

 COORDINATES OF THE EQUIVALENT ATOMS (FRACTIONAL UNITS)

 N. ATOM EQUIV AT. N.          X                  Y                  Z

   1   1   1   12 MG    0.00000000000E+00  0.00000000000E+00  0.00000000000E+00

   2   2   1    8 O    -5.00000000000E-01 -5.00000000000E-01 -5.00000000000E-01

 NUMBER OF SYMMETRY OPERATORS         :   48
 *******************************************************************************
 * GEOMETRY EDITING - INPUT COORDINATES ARE GIVEN IN ANGSTROM         
 *******************************************************************************

 GEOMETRY NOW FULLY CONSISTENT WITH THE GROUP

 NO SYMMOPS WITH FINITE TRANSLATIONAL COMPONENT

 GCALCO - MAX INDICES DIRECT LATTICE VECTOR    14    14    14
 NO.OF VECTORS CREATED 6999 STARS  105 RMAX    29.60199 BOHR

 *******************************************************************************
 * SUPERCELL OPTION
 *******************************************************************************


        EXPANSION MATRIX OF PRIMITIVE CELL
 E1     2.000     0.000     0.000
 E2     0.000     2.000     0.000
 E3     0.000     0.000     2.000

 NUMBER OF ATOMS PER SUPERCELL    16

        DIRECT LATTICE VECTORS COMPONENTS (ANGSTROM)
 B1     0.000     3.956     3.956
 B2     3.956     0.000     3.956
 B3     3.956     3.956     0.000

 LATTICE PARAMETERS  (ANGSTROM AND DEGREES)
       A          B          C         ALPHA     BETA     GAMMA        VOLUME
    5.59425    5.59425    5.59425    60.00000  60.00000  60.00000    123.797103


 **** ATOMS BELONGING TO THE SUPERCELL
 LABEL AT.NO.      COORDINATES (ANGSTROM AND FRACTIONAL)
     1    12     0.0000     0.0000     0.0000     0.0000     0.0000     0.0000
     2    12    -1.9779    -1.9779     0.0000     0.0000    -0.0000    -0.5000
     3    12    -1.9779     0.0000    -1.9779     0.0000    -0.5000    -0.0000
     4    12    -3.9557    -1.9779    -1.9779     0.0000    -0.5000    -0.5000
     5    12     0.0000    -1.9779    -1.9779    -0.5000     0.0000    -0.0000
     6    12    -1.9779    -3.9557    -1.9779    -0.5000     0.0000    -0.5000
     7    12    -1.9779    -1.9779    -3.9557    -0.5000    -0.5000    -0.0000
     8    12    -3.9557    -3.9557    -3.9557    -0.5000    -0.5000    -0.5000
     9     8     1.9779     1.9779     1.9779     0.2500     0.2500     0.2500
    10     8     0.0000     0.0000     1.9779     0.2500     0.2500    -0.2500
    11     8     0.0000     1.9779     0.0000     0.2500    -0.2500     0.2500
    12     8    -1.9779     0.0000     0.0000     0.2500    -0.2500    -0.2500
    13     8     1.9779     0.0000     0.0000    -0.2500     0.2500     0.2500
    14     8     0.0000    -1.9779     0.0000    -0.2500     0.2500    -0.2500
    15     8     0.0000     0.0000    -1.9779    -0.2500    -0.2500     0.2500
    16     8    -1.9779    -1.9779    -1.9779    -0.2500    -0.2500    -0.2500

 **************************** SUPERCELL GENERATED ****************************

 **** ATOMS IN THE SUPERCELL REORDERED FOR PHONON CALCULATION
      ATOMS IN THE SMALL CELL ON TOP

 LABEL AT.NO.      COORDINATES (ANGSTROM)
     1    12     0.0000     0.0000     0.0000
     2     8     1.9779     1.9779     1.9779
     3    12    -1.9779    -0.0000    -1.9779
     4    12    -3.9557    -1.9779    -1.9779
     5    12    -0.0000    -1.9779    -1.9779
     6    12    -1.9779    -3.9557    -1.9779
     7    12    -1.9779    -1.9779    -3.9557
     8    12    -3.9557    -3.9557    -3.9557
     9    12    -1.9779    -1.9779    -0.0000
    10     8     0.0000     0.0000     1.9779
    11     8     0.0000     1.9779     0.0000
    12     8    -1.9779     0.0000     0.0000
    13     8     1.9779     0.0000     0.0000
    14     8     0.0000    -1.9779     0.0000
    15     8     0.0000     0.0000    -1.9779
    16     8    -1.9779    -1.9779    -1.9779

 FRQFRQFRQFRQFRQFRQFRQFRQFRQFRQFRQFRQFRQFRQFRQFRQFRQFRQFRQFRQFRQFRQFRQFRQFRQFRQ

                       FREQUENCY CALCULATION

 INFORMATION **** INPFREQ **** PHONON DISPERSION CALCULATION
 INFORMATION **** INPFREQ **** NEW DEFAULT - IMPOSING ECKART CONDITIONS TO THE HESSIAN

 GCALCO - MAX INDICES DIRECT LATTICE VECTOR    14    14    14
 NO.OF VECTORS CREATED 6999 STARS  105 RMAX   111.87929 BOHR

 GEOMETRY FOR WAVE FUNCTION - DIMENSIONALITY OF THE SYSTEM    3
 (NON PERIODIC DIRECTION: LATTICE PARAMETER FORMALLY SET TO 500)
 *******************************************************************************
 LATTICE PARAMETERS (ANGSTROMS AND DEGREES) - BOHR = 0.5291772083 ANGSTROM
 PRIMITIVE CELL - CENTRING CODE 1/0 VOLUME=   123.797103 - DENSITY  4.290 g/cm^3
         A              B              C           ALPHA      BETA       GAMMA 
     5.59424943     5.59424943     5.59424943    60.000000  60.000000  60.000000
 *******************************************************************************
 ATOMS IN THE ASYMMETRIC UNIT    5 - ATOMS IN THE UNIT CELL:   16
     ATOM                 X/A                 Y/B                 Z/C    
 *******************************************************************************
      1 T  12 MG    0.000000000000E+00  0.000000000000E+00  0.000000000000E+00
      2 T   8 O     2.500000000000E-01  2.500000000000E-01  2.500000000000E-01
      3 T  12 MG   -9.689742429387E-19  5.000000000000E-01  9.689742429387E-19
      4 F  12 MG   -9.689742429387E-19  5.000000000000E-01  5.000000000000E-01
      5 F  12 MG    5.000000000000E-01 -9.689742429387E-19  9.689742429387E-19
      6 F  12 MG    5.000000000000E-01 -9.689742429387E-19  5.000000000000E-01
      7 F  12 MG    5.000000000000E-01  5.000000000000E-01  1.937948485877E-18
      8 T  12 MG    5.000000000000E-01  5.000000000000E-01  5.000000000000E-01
      9 F  12 MG   -9.689742429387E-19  9.689742429387E-19  5.000000000000E-01
     10 T   8 O     2.500000000000E-01  2.500000000000E-01 -2.500000000000E-01
     11 F   8 O     2.500000000000E-01 -2.500000000000E-01  2.500000000000E-01
     12 F   8 O     2.500000000000E-01 -2.500000000000E-01 -2.500000000000E-01
     13 F   8 O    -2.500000000000E-01  2.500000000000E-01  2.500000000000E-01
     14 F   8 O    -2.500000000000E-01  2.500000000000E-01 -2.500000000000E-01
     15 F   8 O    -2.500000000000E-01 -2.500000000000E-01  2.500000000000E-01
     16 F   8 O    -2.500000000000E-01 -2.500000000000E-01 -2.500000000000E-01

 T = ATOM BELONGING TO THE ASYMMETRIC UNIT

 ****   48 SYMMOPS - TRANSLATORS IN FRACTIONAL UNITS
 **** MATRICES AND TRANSLATORS IN THE CRYSTALLOGRAPHIC REFERENCE FRAME
   V INV                    ROTATION MATRICES                   TRANSLATORS
   1   1  1.00  0.00  0.00  0.00  1.00  0.00  0.00  0.00  1.00  0.00  0.00  0.00
   2   2 -0.00  1.00  0.00  1.00 -0.00 -0.00 -1.00 -1.00 -1.00  0.00  0.00  0.00
   3   3 -1.00 -1.00 -1.00  0.00  0.00  1.00 -0.00  1.00  0.00  0.00  0.00  0.00
   4   4  0.00  0.00  1.00 -1.00 -1.00 -1.00  1.00 -0.00 -0.00  0.00  0.00  0.00
   5   6 -0.00 -0.00  1.00  1.00  0.00 -0.00  0.00  1.00  0.00  0.00  0.00  0.00
   6   5 -0.00  1.00 -0.00  0.00 -0.00  1.00  1.00  0.00  0.00  0.00  0.00  0.00
   7   8  1.00  0.00 -0.00 -0.00 -0.00  1.00 -1.00 -1.00 -1.00  0.00  0.00  0.00
   8   7  1.00  0.00  0.00 -1.00 -1.00 -1.00 -0.00  1.00 -0.00  0.00  0.00  0.00
   9  10 -1.00 -1.00 -1.00  0.00  1.00  0.00  1.00  0.00 -0.00  0.00  0.00  0.00
  10   9  0.00 -0.00  1.00 -0.00  1.00 -0.00 -1.00 -1.00 -1.00  0.00  0.00  0.00
  11  12  0.00  1.00  0.00 -1.00 -1.00 -1.00 -0.00 -0.00  1.00  0.00  0.00  0.00
  12  11 -1.00 -1.00 -1.00  1.00  0.00  0.00  0.00 -0.00  1.00  0.00  0.00  0.00
  13  13  0.00 -1.00  0.00 -1.00  0.00 -0.00 -0.00 -0.00 -1.00  0.00  0.00  0.00
  14  14 -1.00  0.00 -0.00  0.00 -1.00  0.00  1.00  1.00  1.00  0.00  0.00  0.00
  15  16 -0.00 -0.00 -1.00  1.00  1.00  1.00  0.00 -1.00  0.00  0.00  0.00  0.00
  16  15  1.00  1.00  1.00 -0.00 -0.00 -1.00 -1.00  0.00 -0.00  0.00  0.00  0.00
  17  17 -1.00  0.00  0.00  0.00 -0.00 -1.00 -0.00 -1.00 -0.00  0.00  0.00  0.00
  18  18  0.00  0.00 -1.00 -0.00 -1.00  0.00 -1.00 -0.00 -0.00  0.00  0.00  0.00
  19  21  0.00 -0.00 -1.00 -1.00  0.00  0.00  1.00  1.00  1.00  0.00  0.00  0.00
  20  22  1.00  1.00  1.00 -1.00 -0.00 -0.00 -0.00 -1.00  0.00  0.00  0.00  0.00
  21  19 -0.00 -1.00 -0.00  1.00  1.00  1.00 -1.00  0.00  0.00  0.00  0.00  0.00
  22  20 -0.00 -1.00  0.00  0.00  0.00 -1.00  1.00  1.00  1.00  0.00  0.00  0.00
  23  23  1.00  1.00  1.00 -0.00 -1.00 -0.00  0.00 -0.00 -1.00  0.00  0.00  0.00
  24  24 -1.00 -0.00 -0.00  1.00  1.00  1.00  0.00  0.00 -1.00  0.00  0.00  0.00
  25  25 -1.00  0.00  0.00  0.00 -1.00 -0.00 -0.00 -0.00 -1.00  0.00  0.00  0.00
  26  26  0.00 -1.00 -0.00 -1.00  0.00  0.00  1.00  1.00  1.00  0.00  0.00  0.00
  27  27  1.00  1.00  1.00 -0.00 -0.00 -1.00  0.00 -1.00 -0.00  0.00  0.00  0.00
  28  28 -0.00 -0.00 -1.00  1.00  1.00  1.00 -1.00  0.00  0.00  0.00  0.00  0.00
  29  30  0.00  0.00 -1.00 -1.00 -0.00  0.00 -0.00 -1.00 -0.00  0.00  0.00  0.00
  30  29  0.00 -1.00  0.00 -0.00  0.00 -1.00 -1.00 -0.00 -0.00  0.00  0.00  0.00
  31  32 -1.00 -0.00  0.00  0.00  0.00 -1.00  1.00  1.00  1.00  0.00  0.00  0.00
  32  31 -1.00 -0.00 -0.00  1.00  1.00  1.00  0.00 -1.00  0.00  0.00  0.00  0.00
  33  34  1.00  1.00  1.00 -0.00 -1.00 -0.00 -1.00 -0.00  0.00  0.00  0.00  0.00
  34  33 -0.00  0.00 -1.00  0.00 -1.00  0.00  1.00  1.00  1.00  0.00  0.00  0.00
  35  36 -0.00 -1.00 -0.00  1.00  1.00  1.00  0.00  0.00 -1.00  0.00  0.00  0.00
  36  35  1.00  1.00  1.00 -1.00 -0.00 -0.00 -0.00  0.00 -1.00  0.00  0.00  0.00
  37  37 -0.00  1.00 -0.00  1.00 -0.00  0.00  0.00  0.00  1.00  0.00  0.00  0.00
  38  38  1.00 -0.00  0.00 -0.00  1.00 -0.00 -1.00 -1.00 -1.00  0.00  0.00  0.00
  39  40  0.00  0.00  1.00 -1.00 -1.00 -1.00 -0.00  1.00 -0.00  0.00  0.00  0.00
  40  39 -1.00 -1.00 -1.00  0.00  0.00  1.00  1.00 -0.00  0.00  0.00  0.00  0.00
  41  41  1.00 -0.00 -0.00 -0.00  0.00  1.00  0.00  1.00  0.00  0.00  0.00  0.00
  42  42 -0.00 -0.00  1.00  0.00  1.00 -0.00  1.00  0.00  0.00  0.00  0.00  0.00
  43  45 -0.00  0.00  1.00  1.00 -0.00 -0.00 -1.00 -1.00 -1.00  0.00  0.00  0.00
  44  46 -1.00 -1.00 -1.00  1.00  0.00  0.00  0.00  1.00 -0.00  0.00  0.00  0.00
  45  43  0.00  1.00  0.00 -1.00 -1.00 -1.00  1.00 -0.00 -0.00  0.00  0.00  0.00
  46  44  0.00  1.00 -0.00 -0.00 -0.00  1.00 -1.00 -1.00 -1.00  0.00  0.00  0.00
  47  47 -1.00 -1.00 -1.00  0.00  1.00  0.00 -0.00  0.00  1.00  0.00  0.00  0.00
  48  48  1.00  0.00  0.00 -1.00 -1.00 -1.00 -0.00 -0.00  1.00  0.00  0.00  0.00

 DIRECT LATTICE VECTORS CARTESIAN COMPONENTS (ANGSTROM)
          X                    Y                    Z
   0.000000000000E+00   0.395573171000E+01   0.395573171000E+01
   0.395573171000E+01   0.000000000000E+00   0.395573171000E+01
   0.395573171000E+01   0.395573171000E+01   0.000000000000E+00


 CARTESIAN COORDINATES - PRIMITIVE CELL
 *******************************************************************************
 *      ATOM          X(ANGSTROM)         Y(ANGSTROM)         Z(ANGSTROM)
 *******************************************************************************
    1    12 MG    0.000000000000E+00  0.000000000000E+00  0.000000000000E+00
    2     8 O     1.977865855000E+00  1.977865855000E+00  1.977865855000E+00
    3    12 MG    1.977865855000E+00 -3.984156174657E-34  1.977865855000E+00
    4    12 MG    3.955731710000E+00  1.977865855000E+00  1.977865855000E+00
    5    12 MG   -3.984156174657E-34  1.977865855000E+00  1.977865855000E+00
    6    12 MG    1.977865855000E+00  3.955731710000E+00  1.977865855000E+00
    7    12 MG    1.977865855000E+00  1.977865855000E+00  3.955731710000E+00
    8    12 MG    3.955731710000E+00  3.955731710000E+00  3.955731710000E+00
    9    12 MG    1.977865855000E+00  1.977865855000E+00 -3.984156174657E-34
   10     8 O    -7.707333560258E-18 -7.707333560258E-18  1.977865855000E+00
   11     8 O     7.707333560258E-18  1.977865855000E+00 -7.707333560258E-18
   12     8 O    -1.977865855000E+00 -7.707333560258E-18 -7.707333560258E-18
   13     8 O     1.977865855000E+00  7.707333560258E-18  7.707333560258E-18
   14     8 O     3.447954988967E-16 -1.977865855000E+00  4.545891094887E-16
   15     8 O     7.707333560258E-18  7.707333560258E-18 -1.977865855000E+00
   16     8 O    -1.977865855000E+00 -1.977865855000E+00 -1.977865855000E+00

 *******************************************************************************
 LOCAL ATOMIC FUNCTIONS BASIS SET
 *******************************************************************************
   ATOM   X(AU)   Y(AU)   Z(AU)  N. TYPE  EXPONENT  S COEF   P COEF   D/F/G COEF
 *******************************************************************************
   1 MG   0.000   0.000   0.000
                                  1 S  
                                         2.992E+02 1.543E-01 0.000E+00 0.000E+00
                                         5.451E+01 5.353E-01 0.000E+00 0.000E+00
                                         1.475E+01 4.446E-01 0.000E+00 0.000E+00
                           2-     5 SP 
                                         1.512E+01-9.997E-02 1.559E-01 0.000E+00
                                         3.514E+00 3.995E-01 6.077E-01 0.000E+00
                                         1.143E+00 7.001E-01 3.920E-01 0.000E+00
                           6-     9 SP 
                                         1.395E+00-2.196E-01 1.059E-02 0.000E+00
                                         3.893E-01 2.256E-01 5.952E-01 0.000E+00
                                         1.524E-01 9.004E-01 4.620E-01 0.000E+00
   2 O    3.738   3.738   3.738
                                 10 S  
                                         1.307E+02 1.543E-01 0.000E+00 0.000E+00
                                         2.381E+01 5.353E-01 0.000E+00 0.000E+00
                                         6.444E+00 4.446E-01 0.000E+00 0.000E+00
                          11-    14 SP 
                                         5.033E+00-9.997E-02 1.559E-01 0.000E+00
                                         1.170E+00 3.995E-01 6.077E-01 0.000E+00
                                         3.804E-01 7.001E-01 3.920E-01 0.000E+00
   3 MG   3.738  -0.000   3.738
   4 MG   7.475   3.738   3.738
   5 MG  -0.000   3.738   3.738
   6 MG   3.738   7.475   3.738
   7 MG   3.738   3.738   7.475
   8 MG   7.475   7.475   7.475
   9 MG   3.738   3.738  -0.000
  10 O   -0.000  -0.000   3.738
  11 O    0.000   3.738  -0.000
  12 O   -3.738  -0.000  -0.000
  13 O    3.738   0.000   0.000
  14 O    0.000  -3.738   0.000
  15 O    0.000   0.000  -3.738
  16 O   -3.738  -3.738  -3.738
 INFORMATION **** SET_MPP **** PCRYSTAL CALCULATION
 INFORMATION **** READM2 **** NEW DEFAULT: FOCK/KS MATRIX MIXING SET TO 30 %
 INFORMATION **** READM2 **** NEW DEFAULT: FULL DIRECT SCF MODE
 INFORMATION **** READM2 **** NEW DEFAULT: COULOMB BIPOLAR BUFFER SET TO 32 Mb
 INFORMATION **** READM2 **** NEW DEFAULT: EXCHANGE BIPOLAR BUFFER SET TO 32 Mb

 *******************************************************************************
 NEW DEFAULT: DFT INTEGRATION GRID INCREASED TO XLGRID
 NEW DEFAULT: DIIS ACCELERATOR ACTIVE
 USE KEYWORD NODIIS TO TURN IT OFF
 *******************************************************************************

 INFORMATION **** TOLDEE **** SCF TOL ON TOTAL ENERGY SET TO          10
 *******************************************************************************
 N. OF ATOMS PER CELL        16  COULOMB OVERLAP TOL         (T1) 10**   -6
 NUMBER OF SHELLS            40  COULOMB PENETRATION TOL     (T2) 10**   -6
 NUMBER OF AO               112  EXCHANGE OVERLAP TOL        (T3) 10**   -6
 N. OF ELECTRONS PER CELL   160  EXCHANGE PSEUDO OVP (F(G))  (T4) 10**   -6
 CORE ELECTRONS PER CELL     96  EXCHANGE PSEUDO OVP (P(G))  (T5) 10**  -12
 N. OF SYMMETRY OPERATORS    48  POLE ORDER IN MONO ZONE                  4
 *******************************************************************************
 TYPE OF CALCULATION :  RESTRICTED CLOSED SHELL
 KOHN-SHAM HAMILTONIAN

 (EXCHANGE)[CORRELATION] FUNCTIONAL:(BECKE 88)[LEE-YANG-PARR]

 NON-LOCAL WEIGHTING FACTOR (EXCHANGE) =           0.9000
 NON-LOCAL WEIGHTING FACTOR [CORRELATION] =        0.8100

 HYBRID EXCHANGE - PERCENTAGE OF FOCK EXCHANGE    20.0000

 CAPPA:IS1  8;IS2  8;IS3  8; K PTS MONK NET  29; SYMMOPS:K SPACE  48;G SPACE  48

 *******************************************************************************
 MAX NUMBER OF SCF CYCLES      50  CONVERGENCE ON DELTAP        10**-20
 WEIGHT OF F(I) IN F(I+1)      30% CONVERGENCE ON ENERGY        10**-10
 SHRINK. FACT.(MONKH.)    8  8  8  NUMBER OF K POINTS IN THE IBZ     29
 SHRINKING FACTOR(GILAT NET)    8  NUMBER OF K POINTS(GILAT NET)     29
 *******************************************************************************
 *** K POINTS COORDINATES (OBLIQUE COORDINATES IN UNITS OF IS =  8)
   1-R(  0  0  0)   2-C(  1  0  0)   3-C(  2  0  0)   4-C(  3  0  0)
   5-R(  4  0  0)   6-C(  1  1  0)   7-C(  2  1  0)   8-C(  3  1  0)
   9-C(  4  1  0)  10-C(  5  1  0)  11-C(  6  1  0)  12-C(  7  1  0)
  13-C(  2  2  0)  14-C(  3  2  0)  15-C(  4  2  0)  16-C(  5  2  0)
  17-C(  6  2  0)  18-C(  3  3  0)  19-C(  4  3  0)  20-C(  5  3  0)
  21-R(  4  4  0)  22-C(  3  2  1)  23-C(  4  2  1)  24-C(  5  2  1)
  25-C(  4  3  1)  26-C(  5  3  1)  27-C(  6  3  1)  28-C(  5  4  1)
  29-C(  6  4  2)

 DIRECT LATTICE VECTORS COMPON. (A.U.)     RECIP. LATTICE VECTORS COMPON. (A.U.) 
        X            Y            Z              X            Y            Z
    0.0000000    7.4752496    7.4752496     -0.4202659    0.4202659    0.4202659
    7.4752496    0.0000000    7.4752496      0.4202659   -0.4202659    0.4202659
    7.4752496    7.4752496    0.0000000      0.4202659    0.4202659   -0.4202659

 DISK SPACE FOR EIGENVECTORS (FTN 10)      689920 REALS

 SYMMETRY ADAPTION OF THE BLOCH FUNCTIONS ENABLED
 TTTTTTTTTTTTTTTTTTTTTTTTTTTTTT gordsh1     TELAPSE        0.35 TCPU        0.19

 MATRIX SIZE: P(G)  143440, F(G)   21728, P(G) IRR    3349, F(G) IRR    1393
 MAX G-VECTOR INDEX FOR 1- AND 2-ELECTRON INTEGRALS 133

 TTTTTTTTTTTTTTTTTTTTTTTTTTTTTT INPUT       TELAPSE        0.35 TCPU        0.19

 NEIGHBORS OF THE NON-EQUIVALENT ATOMS

 N = NUMBER OF NEIGHBORS AT DISTANCE R
    ATOM  N     R/ANG      R/AU   NEIGHBORS (ATOM LABELS AND CELL INDICES)
   1 MG   6     1.9779     3.7376   10 O    0 0 0   11 O    0 0 0   12 O    0 0 0
                                    13 O    0 0 0   14 O    0 0 0   15 O    0 0 0
   1 MG  12     2.7971     5.2858    3 MG   0 0 0    3 MG   0-1 0    4 MG   0-1 0
                                     4 MG   0 0-1    5 MG   0 0 0    5 MG  -1 0 0
                                     6 MG   0 0-1    6 MG  -1 0 0    7 MG  -1 0 0
                                     7 MG   0-1 0    9 MG   0 0 0    9 MG   0 0-1
   1 MG   8     3.4258     6.4738    2 O    0 0 0    2 O   -1 0 0    2 O    0-1 0
                                     2 O    0 0-1   16 O    0 0 0   16 O    1 0 0
                                    16 O    0 1 0   16 O    0 0 1
   1 MG   6     3.9557     7.4752    8 MG  -1 0 0    8 MG   0-1 0    8 MG   0 0-1
                                     8 MG  -1-1 0    8 MG  -1 0-1    8 MG   0-1-1
   1 MG  24     4.4226     8.3576   10 O   -1 0 0   10 O   -1 0 1   10 O    0-1 0
                                    10 O    0-1 1   11 O    0 0-1   11 O    0 1-1
                                    11 O   -1 0 0   11 O   -1 1 0   12 O    0 1 0
                                    12 O   -1 1 0   12 O    0 0 1   12 O   -1 0 1
                                    13 O    0-1 0   13 O    1-1 0   13 O    0 0-1
                                    13 O    1 0-1   14 O    0 0 1   14 O    0-1 1
                                    14 O    1 0 0   14 O    1-1 0   15 O    1 0 0
                                    15 O    1 0-1   15 O    0 1 0   15 O    0 1-1
   1 MG  24     4.8448     9.1553    3 MG  -1 0 0    3 MG   1-1 0    3 MG   0-1 1
                                     3 MG   0 0-1    4 MG  -1 0 0    4 MG   1-1-1
                                     4 MG   0-1-1    4 MG   0 0 0    5 MG   0 0-1
                                     5 MG  -1 0 1    5 MG  -1 1 0    5 MG   0-1 0
                                     6 MG   0-1 0    6 MG  -1 1-1    6 MG  -1 0-1
                                     6 MG   0 0 0    7 MG   0 0-1    7 MG  -1-1 1
                                     7 MG  -1-1 0    7 MG   0 0 0    9 MG   0-1 0
                                     9 MG   0 1-1    9 MG   1 0-1    9 MG  -1 0 0

   2 O    6     1.9779     3.7376    3 MG   0 0 0    4 MG   0 0 0    5 MG   0 0 0
                                     6 MG   0 0 0    7 MG   0 0 0    9 MG   0 0 0
   2 O   12     2.7971     5.2858   10 O    0 0 0   10 O    0 0 1   11 O    0 0 0
                                    11 O    0 1 0   12 O    0 0 1   12 O    0 1 0
                                    13 O    0 0 0   13 O    1 0 0   14 O    0 0 1
                                    14 O    1 0 0   15 O    1 0 0   15 O    0 1 0
   2 O    8     3.4258     6.4738    1 MG   0 0 0    1 MG   1 0 0    1 MG   0 1 0
                                     1 MG   0 0 1    8 MG   0 0 0    8 MG  -1 0 0
                                     8 MG   0-1 0    8 MG   0 0-1
   2 O    6     3.9557     7.4752   16 O    1 0 0   16 O    0 1 0   16 O    0 0 1
                                    16 O    1 1 0   16 O    1 0 1   16 O    0 1 1
   2 O   24     4.4226     8.3576    3 MG   1 0 0    3 MG   1-1 0    3 MG   0-1 1
                                     3 MG   0 0 1    4 MG   1-1 0    4 MG   1 0-1
                                     4 MG   0 0-1    4 MG   0-1 0    5 MG   0 0 1
                                     5 MG  -1 0 1    5 MG  -1 1 0    5 MG   0 1 0
                                     6 MG   0 1-1    6 MG  -1 1 0    6 MG  -1 0 0
                                     6 MG   0 0-1    7 MG  -1 0 1    7 MG   0-1 1
                                     7 MG   0-1 0    7 MG  -1 0 0    9 MG   0 1 0
                                     9 MG   0 1-1    9 MG   1 0-1    9 MG   1 0 0
   2 O   24     4.8448     9.1553   10 O    1 0 0   10 O   -1 0 1   10 O    0 1 0
                                    10 O    0-1 1   11 O    0 0 1   11 O    0 1-1
                                    11 O    1 0 0   11 O   -1 1 0   12 O    1 0 0
                                    12 O   -1 1 1   12 O    0 0 0   12 O    0 1 1
                                    13 O    0 1 0   13 O    1-1 0   13 O    0 0 1
                                    13 O    1 0-1   14 O    0 0 0   14 O    1 0 1
                                    14 O    0 1 0   14 O    1-1 1   15 O    0 0 0
                                    15 O    1 1 0   15 O    0 0 1   15 O    1 1-1

   3 MG   6     1.9779     3.7376    2 O    0 0 0   10 O    0 0 0   12 O    0 1 0
                                    13 O    0 0 0   15 O    0 1 0   16 O    0 1 0
   3 MG  12     2.7971     5.2858    1 MG   0 0 0    1 MG   0 1 0    4 MG   0 0 0
                                     4 MG   0 0-1    5 MG   0 0 0    5 MG  -1 1 0
                                     7 MG   0 0 0    7 MG  -1 0 0    8 MG   0 0-1
                                     8 MG  -1 0 0    9 MG   0 0 0    9 MG   0 1-1
   3 MG   8     3.4258     6.4738   11 O    0 1-1   11 O    0 0 0   11 O    0 1 0
                                    11 O   -1 1 0   14 O    0 0 1   14 O    0 0 0
                                    14 O    0 1 0   14 O    1 0 0
   3 MG   6     3.9557     7.4752    6 MG   0 0 0    6 MG  -1 1 0    6 MG   0 1-1
                                     6 MG   0 0-1    6 MG  -1 0 0    6 MG  -1 1-1
   3 MG  24     4.4226     8.3576    2 O   -1 0 0    2 O   -1 1 0    2 O    0 1-1
                                     2 O    0 0-1   10 O   -1 0 1   10 O   -1 1 0
                                    10 O    0 1 0   10 O    0 0 1   12 O   -1 1 1
                                    12 O    0 0 1   12 O    0 0 0   12 O   -1 1 0
                                    13 O    1 0-1   13 O    1 0 0   13 O    0 1 0
                                    13 O    0 1-1   15 O    1 1-1   15 O    0 1-1
                                    15 O    0 0 0   15 O    1 0 0   16 O    0 1 1
                                    16 O    0 0 1   16 O    1 0 0   16 O    1 1 0
   3 MG  24     4.8448     9.1553    1 MG   1 0 0    1 MG  -1 1 0    1 MG   0 1-1
                                     1 MG   0 0 1    4 MG  -1 0 0    4 MG   1 0-1
                                     4 MG   0-1 0    4 MG   0 1-1    5 MG  -1 0 0
                                     5 MG   0 1 0    5 MG  -1 0 1    5 MG   0 1-1
                                     7 MG   0-1 0    7 MG  -1 1 0    7 MG   0 0-1
                                     7 MG  -1 0 1    8 MG   0-1 0    8 MG  -1 1-1
                                     8 MG  -1 0-1    8 MG   0 0 0    9 MG   1 0-1
                                     9 MG  -1 1 0    9 MG   0 0-1    9 MG   0 1 0

   8 MG   6     1.9779     3.7376   10 O    0 0 1   11 O    0 1 0   12 O    0 1 1
                                    13 O    1 0 0   14 O    1 0 1   15 O    1 1 0
   8 MG  12     2.7971     5.2858    3 MG   0 0 1    3 MG   1 0 0    4 MG   0 0 0
                                     4 MG   1 0 0    5 MG   0 1 0    5 MG   0 0 1
                                     6 MG   0 0 0    6 MG   0 1 0    7 MG   0 0 0
                                     7 MG   0 0 1    9 MG   1 0 0    9 MG   0 1 0
   8 MG   8     3.4258     6.4738    2 O    0 0 0    2 O    1 0 0    2 O    0 1 0
                                     2 O    0 0 1   16 O    1 1 1   16 O    1 0 1
                                    16 O    0 1 1   16 O    1 1 0
   8 MG   6     3.9557     7.4752    1 MG   1 0 0    1 MG   0 1 0    1 MG   0 0 1
                                     1 MG   1 1 0    1 MG   1 0 1    1 MG   0 1 1
   8 MG  24     4.4226     8.3576   10 O    1 0 0   10 O    0 1 0   10 O    1 0 1
                                    10 O    0 1 1   11 O    0 0 1   11 O    1 0 0
                                    11 O    0 1 1   11 O    1 1 0   12 O    1 0 1
                                    12 O    0 0 1   12 O    1 1 0   12 O    0 1 0
                                    13 O    0 1 0   13 O    0 0 1   13 O    1 1 0
                                    13 O    1 0 1   14 O    0 0 1   14 O    0 1 1
                                    14 O    1 0 0   14 O    1 1 0   15 O    1 0 0
                                    15 O    1 0 1   15 O    0 1 0   15 O    0 1 1
   8 MG  24     4.8448     9.1553    3 MG   0 1 0    3 MG   1-1 1    3 MG   1 0 1
                                     3 MG   0 0 0    4 MG   0 0 1    4 MG   1 0-1
                                     4 MG   1-1 0    4 MG   0 1 0    5 MG   1 0 0
                                     5 MG  -1 1 1    5 MG   0 1 1    5 MG   0 0 0
                                     6 MG   1 0 0    6 MG  -1 1 0    6 MG   0 1-1
                                     6 MG   0 0 1    7 MG   0 1 0    7 MG   0-1 1
                                     7 MG  -1 0 1    7 MG   1 0 0    9 MG   0 0 1
                                     9 MG   1 1-1    9 MG   1 1 0    9 MG   0 0 0

  10 O    6     1.9779     3.7376    1 MG   0 0 0    3 MG   0 0 0    4 MG   0 0-1
                                     5 MG   0 0 0    6 MG   0 0-1    8 MG   0 0-1
  10 O   12     2.7971     5.2858    2 O    0 0 0    2 O    0 0-1   11 O    0 0 0
                                    11 O    0 1-1   12 O    0 0 0   12 O    0 1 0
                                    13 O    0 0 0   13 O    1 0-1   14 O    0 0 0
                                    14 O    1 0 0   16 O    1 0 0   16 O    0 1 0
  10 O    8     3.4258     6.4738    7 MG   0 0 0    7 MG  -1 0 0    7 MG   0-1 0
                                     7 MG   0 0-1    9 MG   0 1-1    9 MG   0 0-1
                                     9 MG   0 0 0    9 MG   1 0-1
  10 O    6     3.9557     7.4752   15 O    0 0 0   15 O    0 1-1   15 O    1 0-1
                                    15 O    1 0 0   15 O    0 1 0   15 O    1 1-1
  10 O   24     4.4226     8.3576    1 MG   1 0 0    1 MG   1 0-1    1 MG   0 1 0
                                     1 MG   0 1-1    3 MG   1 0-1    3 MG   1-1 0
                                     3 MG   0-1 0    3 MG   0 0-1    4 MG   1 0-1
                                     4 MG   0 0 0    4 MG   0-1 0    4 MG   1-1-1
                                     5 MG   0 1-1    5 MG   0 0-1    5 MG  -1 0 0
                                     5 MG  -1 1 0    6 MG   0 1-1    6 MG  -1 1-1
                                     6 MG  -1 0 0    6 MG   0 0 0    8 MG  -1 0 0
                                     8 MG   0-1 0    8 MG  -1 0-1    8 MG   0-1-1
  10 O   24     4.8448     9.1553    2 O   -1 0 0    2 O    1 0-1    2 O    0-1 0
                                     2 O    0 1-1   11 O    1 0-1   11 O   -1 1 0
                                    11 O    0 1 0   11 O    0 0-1   12 O   -1 1 0
                                    12 O    1 0 0   12 O    0 0 1   12 O    0 1-1
                                    13 O    1-1 0   13 O    0 1-1   13 O    0 0-1
                                    13 O    1 0 0   14 O    0 1 0   14 O    1-1 0
                                    14 O    1 0-1   14 O    0 0 1   16 O    0 0 0
                                    16 O    1 1 0   16 O    0 0 1   16 O    1 1-1


 SYMMETRY ALLOWED INTERNAL DEGREE(S) OF FREEDOM:   1
 TTTTTTTTTTTTTTTTTTTTTTTTTTTTTT SYMM        TELAPSE        0.42 TCPU        0.26
 TTTTTTTTTTTTTTTTTTTTTTTTTTTTTT INT_SCREEN  TELAPSE        0.42 TCPU        0.26

 *******************************************************************************
 *                                                                             *
 *                                                                             *
 *         FFFFF  RRRR   EEEE   QQQ   U   U  EEEE  N   N   CCC  Y   Y          *
 *         F      R   R  E     Q   Q  U   U  E     NN  N  C      Y Y           *
 *         FFF    RRRR   EEEE  Q   Q  U   U  EEEE  N N N  C       Y            *
 *         F      R   R  E     Q  QQ  U   U  E     N  NN  C       Y            *
 *         F      R   R  EEEE   QQ Q   UUU   EEEE  N   N   CCC    Y            *
 *                                                                             *
 *                                                                             *
 * CALCULATION OF PHONON FREQUENCIES AT A SET OF K POINTS BY USING A SUPERCELL *
 * SCHEME. THE FOLLOWING SUPERCELL HAS BEEN USED:                              *
 *     2.000     0.000     0.000                                               *
 *     0.000     2.000     0.000                                               *
 *     0.000     0.000     2.000                                               *
 * THAT PERMITS THE CALCULATION OF MODES AT     8 K POINTS                     *
 * INTENSITIES COMPUTED VIA THE BERRY PHASE APPROACH                           *
 *                                                                             *
 * REFERENCES TO BE QUOTED WHEN USING THIS MODULE:                             *
 *                                                                             *
 * F. Pascale, C.M. Zicovich-Wilson, F. Lopez, B. Civalleri                    *
 * R. Orlando, R. Dovesi                                                       *
 * The calculation of the vibration frequencies of crystalline                 *
 * compounds and its implementation in the CRYSTAL code                        *
 * J. Comput. Chem. 25 (2004) 888-897                                          *
 *                                                                             *
 * C.M. Zicovich-Wilson, F. Pascale, C. Roetti, V.R. Saunders,                 *
 * R. Orlando, R. Dovesi                                                       *
 * The calculation of the vibration frequencies of alpha-quartz:               *
 * the effect of hamiltonian and basis set                                     *
 * J. Comput. Chem. 25 (2004) 1873-1881                                        *
 *******************************************************************************



 ATOMS ISOTOPIC MASS (AMU) FOR FREQUENCY CALCULATION 

    1 MG     23.9850    2 O      15.9949    3 MG     23.9850    4 MG     23.9850
    5 MG     23.9850    6 MG     23.9850    7 MG     23.9850    8 MG     23.9850
    9 MG     23.9850   10 O      15.9949   11 O      15.9949   12 O      15.9949
   13 O      15.9949   14 O      15.9949   15 O      15.9949   16 O      15.9949
 *******************************************************************************
 *                                                                             *
 * LIST OF THE K POINTS USED FOF PHONON DISPERSION.                            *
 * IN THESE K POINTS THE DYNAMICAL MATRIX IS DIAGONALIZED                      *
 * AND THE RESULTING FREQUENCIES ARE USED FOR THERMODYNAMICS                   *
 *  K       WEIGHT       COORD                                                 *
 *      1         1.        0  0  0                                            *
 *      2         1.        0  0  1                                            *
 *      3         1.        0  1  0                                            *
 *      4         1.        0  1  1                                            *
 *      5         1.        1  0  0                                            *
 *      6         1.        1  0  1                                            *
 *      7         1.        1  1  0                                            *
 *      8         1.        1  1  1                                            *
 * WITH SHRINKING FACTORS: IS1 =     2 IS2 =     2 IS3 =     2                 *
 * AND RECIPROCAL LATTICE VECTORS:                                             *
 *      -1.5883750    1.5883750    1.5883750                                   *
 *       1.5883750   -1.5883750    1.5883750                                   *
 *       1.5883750    1.5883750   -1.5883750                                   *
 *******************************************************************************

 INFORMATION CONCERNING THE SCF+GRADIENT CALCULATIONS REQUIRED FOR
 GENERATING FREQUENCIES. IN PRINCIPLE 3N+1 SCF + GRADIENT
 CALCULATIONS  ARE REQUIRED;
 FOR EACH OF THEM THE REMAINING POINT SYMMETRY IS INDICATED.
 POINT SYMMETRY PERMITS TO GENERATE GRADIENTS FOR DISPLACEMENT B 
 STARTING FROM THE GRADIENT GENERATED BY DISPLACEMENT A.

   N   LABEL SYMBOL DISPLACEMENT     SYM. 

   1     EQUILIBRIUM GEOMETRY           48

   2      1   MG           DX           8
   3      1   MG           DY        GENERATED FROM LINE X WITH OP   6
   4      1   MG           DZ        GENERATED FROM LINE X WITH OP   5
   5      2   O            DX           4
   6      2   O            DY        GENERATED FROM LINE X WITH OP   6
   7      2   O            DZ        GENERATED FROM LINE X WITH OP   5
 USE OF RESIDUAL SYMMETRY AFTER DISPLACEMENT

 NUMERICAL GRADIENT COMPUTED WITH A SINGLE DISPLACEMENT (+DX) FOR EACH
 CARTESIAN COORDINATE WITH RESPECT TO THE EQUILIBRIUM CONFIGURATION
 DX=  0.003 ANGSTROM
 NUMBER OF IRREDUCIBLE ATOMS                     2
 NUMBER OF SCF+GRADIENT CALCULATIONS             3

  ATOM  SYMOP  ORDER
    1     48      6
    2     24      4

 ATOM  : IRREDUCIBLE ATOM
 SYMOP : NUMBER OF SYMMETRY OPERATORS THAT DOESN'T MOVE THE IRREDUCIBLE ATOM
 ORDER : MAXIMUM ORDER AMONG THE OPERATORS OF THE IRREDUCIBLE ATOM

 *******************************************************************************


 GCALCO - MAX INDICES DIRECT LATTICE VECTOR    14    14    14
 NO.OF VECTORS CREATED 6999 STARS  105 RMAX   111.87929 BOHR

 CAPPA:IS1  8;IS2  8;IS3  8; K PTS MONK NET  29; SYMMOPS:K SPACE  48;G SPACE  48

 TTTTTTTTTTTTTTTTTTTTTTTTTTTTTT gordsh1     TELAPSE        0.43 TCPU        0.27

 MATRIX SIZE: P(G)  143440, F(G)   21728, P(G) IRR    3349, F(G) IRR    1393
 MAX G-VECTOR INDEX FOR 1- AND 2-ELECTRON INTEGRALS 133

 TTTTTTTTTTTTTTTTTTTTTTTTTTTTTT INPUT       TELAPSE        0.44 TCPU        0.27

 SYMMETRY ALLOWED INTERNAL DEGREE(S) OF FREEDOM:   1
 TTTTTTTTTTTTTTTTTTTTTTTTTTTTTT SYMM        TELAPSE        0.46 TCPU        0.30
 TTTTTTTTTTTTTTTTTTTTTTTTTTTTTT INT_SCREEN  TELAPSE        0.47 TCPU        0.30

 DFT PARAMETERS

     ATOM       ELECTRONS   NET CHARGE   R(ANGSTROM)
   1  12  MG     12.0000      0.0000     1.60000000
   2   8  O       8.0000      0.0000     0.74000000

 SIZE OF GRID=       7634
 TTTTTTTTTTTTTTTTTTTTTTTTTTTTTT MAKE_GRID2  TELAPSE        2.11 TCPU        1.94
 BECKE WEIGHT FUNCTION
 RADSAFE =     2.00
 TOLERANCES - DENSITY:10**- 6; POTENTIAL:10**- 9; GRID WGT:10**-14

 RADIAL INTEGRATION  - INTERVALS (POINTS,UPPER LIMIT):            1( 75,  4.0*R)

 ANGULAR INTEGRATION - INTERVALS (ACCURACY LEVEL [N. POINTS] UPPER LIMIT):
  1(  4[  86]   0.2)  2(  8[ 194]   0.5)  3( 12[ 350]   0.9)  4( 16[ 974]   3.5)
  5( 12[ 350]9999.0)
 TTTTTTTTTTTTTTTTTTTTTTTTTTTTTT INT_CALC    TELAPSE        2.14 TCPU        1.97

 *******************************************************************************
 TEST11 - MGO BULK B3-LYP                                                        
 CRYSTAL - SCF - TYPE OF CALCULATION :  RESTRICTED CLOSED SHELL
 *******************************************************************************

 CAPPA:IS1  8;IS2  8;IS3  8; K PTS MONK NET  29; SYMMOPS:K SPACE  48;G SPACE  48

 TTTTTTTTTTTTTTTTTTTTTTTTTTTTTT SDIK        TELAPSE        2.17 TCPU        1.99

 AAAAAAAAAAAAAAAAAAAAAAAAAAAAAAAAAAAAAAAAAAAAAAAAAAAAAAAAAAAAAAAAAAAAAAAAAAAAAAA
         ATOMIC WAVEFUNCTION(S)


 NUCLEAR CHARGE 12.0  SYMMETRY SPECIES            S    P
 N. ELECTRONS   12.0  NUMBER OF PRIMITIVE GTOS    9    6
                      NUMBER OF CONTRACTED GTOS   3    2
                      NUMBER OF CLOSED SHELLS     3    1
                      OPEN SHELL OCCUPATION       0    0

  ZNUC  SCFIT    TOTAL HF ENERGY   KINETIC ENERGY   VIRIAL THEOREM ACCURACY
  12.0     4    -1.970073545E+02  1.945732082E+02 -2.012510183E+00  2.9E-06

 NUCLEAR CHARGE  8.0  SYMMETRY SPECIES            S    P
 N. ELECTRONS    8.0  NUMBER OF PRIMITIVE GTOS    6    3
                      NUMBER OF CONTRACTED GTOS   2    1
                      NUMBER OF CLOSED SHELLS     2    0
                      OPEN SHELL OCCUPATION       0    4

  ZNUC  SCFIT    TOTAL HF ENERGY   KINETIC ENERGY   VIRIAL THEOREM ACCURACY
   8.0     1    -7.380415026E+01  7.344496710E+01 -2.004890507E+00  0.0E+00

 AAAAAAAAAAAAAAAAAAAAAAAAAAAAAAAAAAAAAAAAAAAAAAAAAAAAAAAAAAAAAAAAAAAAAAAAAAAAAAA

 TTTTTTTTTTTTTTTTTTTTTTTTTTTTTT MOQGAD      TELAPSE        2.18 TCPU        1.99
 TTTTTTTTTTTTTTTTTTTTTTTTTTTTTT SHELLXN     TELAPSE        2.49 TCPU        2.29
 TTTTTTTTTTTTTTTTTTTTTTTTTTTTTT MONMO3      TELAPSE        2.55 TCPU        2.36
 NUMERICALLY INTEGRATED DENSITY    159.9978153684
 TTTTTTTTTTTTTTTTTTTTTTTTTTTTTT NUMDFT      TELAPSE        2.80 TCPU        2.58
 CYC   0 ETOT(AU) -2.173493427990E+03 DETOT -2.17E+03 tst  0.00E+00 PX  1.00E+00
 TTTTTTTTTTTTTTTTTTTTTTTTTTTTTT DIIS        TELAPSE        2.82 TCPU        2.60
 TTTTTTTTTTTTTTTTTTTTTTTTTTTTTT FDIK        TELAPSE        2.93 TCPU        2.73
 INSULATING STATE
 TOP OF VALENCE BANDS -    BAND     80; K    1; EIG -1.5120319E-01 AU
 BOTTOM OF VIRTUAL BANDS - BAND     81; K    1; EIG  1.4412887E-01 AU
 DIRECT ENERGY BAND GAP:   8.0364 eV
 TTTTTTTTTTTTTTTTTTTTTTTTTTTTTT PDIG        TELAPSE        3.11 TCPU        2.90
 TTTTTTTTTTTTTTTTTTTTTTTTTTTTTT MOQGAD      TELAPSE        3.15 TCPU        2.94
 TTTTTTTTTTTTTTTTTTTTTTTTTTTTTT SHELLXN     TELAPSE        3.47 TCPU        3.18
 TTTTTTTTTTTTTTTTTTTTTTTTTTTTTT MONMO3      TELAPSE        3.58 TCPU        3.28
 NUMERICALLY INTEGRATED DENSITY    159.9971054232
 TTTTTTTTTTTTTTTTTTTTTTTTTTTTTT NUMDFT      TELAPSE        3.82 TCPU        3.52
 CYC   1 ETOT(AU) -2.175272485369E+03 DETOT -1.78E+00 tst  0.00E+00 PX  1.00E+00
 TTTTTTTTTTTTTTTTTTTTTTTTTTTTTT DIIS        TELAPSE        3.84 TCPU        3.54
 DIIS TEST: 0.12194E+01 AT SCF   CYCLE   1 - MIX   30 %
 TTTTTTTTTTTTTTTTTTTTTTTTTTTTTT FDIK        TELAPSE        3.98 TCPU        3.67
 INSULATING STATE
 TOP OF VALENCE BANDS -    BAND     80; K   17; EIG  4.1534742E-02 AU
 TOP OF VALENCE BANDS -    BAND     80; K    1; EIG  3.6958939E-02 AU
 BOTTOM OF VIRTUAL BANDS - BAND     81; K    1; EIG  2.7626185E-01 AU
 INDIRECT ENERGY BAND GAP:   6.3873 eV
 TTTTTTTTTTTTTTTTTTTTTTTTTTTTTT PDIG        TELAPSE        4.09 TCPU        3.79
 TTTTTTTTTTTTTTTTTTTTTTTTTTTTTT MOQGAD      TELAPSE        4.18 TCPU        3.86
 TTTTTTTTTTTTTTTTTTTTTTTTTTTTTT SHELLXN     TELAPSE        4.52 TCPU        4.20
 TTTTTTTTTTTTTTTTTTTTTTTTTTTTTT MONMO3      TELAPSE        4.58 TCPU        4.26
 NUMERICALLY INTEGRATED DENSITY    159.9975095765
 TTTTTTTTTTTTTTTTTTTTTTTTTTTTTT NUMDFT      TELAPSE        4.81 TCPU        4.51
 CYC   2 ETOT(AU) -2.175679344199E+03 DETOT -4.07E-01 tst  1.34E-02 PX  1.94E-01
 TTTTTTTTTTTTTTTTTTTTTTTTTTTTTT DIIS        TELAPSE        4.82 TCPU        4.52
 DIIS TEST: 0.10585E+00 AT SCF   CYCLE   2 - DIIS ACTIVE - HISTORY:     2 CYCLES
 TTTTTTTTTTTTTTTTTTTTTTTTTTTTTT FDIK        TELAPSE        4.94 TCPU        4.64
 INSULATING STATE
 TOP OF VALENCE BANDS -    BAND     80; K   17; EIG -1.8520135E-02 AU
 TOP OF VALENCE BANDS -    BAND     80; K    1; EIG -2.1992293E-02 AU
 BOTTOM OF VIRTUAL BANDS - BAND     81; K    1; EIG  2.6291465E-01 AU
 INDIRECT ENERGY BAND GAP:   7.6582 eV
 TTTTTTTTTTTTTTTTTTTTTTTTTTTTTT PDIG        TELAPSE        5.03 TCPU        4.72
 TTTTTTTTTTTTTTTTTTTTTTTTTTTTTT MOQGAD      TELAPSE        5.11 TCPU        4.80
 TTTTTTTTTTTTTTTTTTTTTTTTTTTTTT SHELLXN     TELAPSE        5.44 TCPU        5.13
 TTTTTTTTTTTTTTTTTTTTTTTTTTTTTT MONMO3      TELAPSE        5.51 TCPU        5.20
 NUMERICALLY INTEGRATED DENSITY    159.9974072877
 TTTTTTTTTTTTTTTTTTTTTTTTTTTTTT NUMDFT      TELAPSE        5.74 TCPU        5.44
 CYC   3 ETOT(AU) -2.175723194259E+03 DETOT -4.39E-02 tst  1.06E-03 PX  6.77E-02
 TTTTTTTTTTTTTTTTTTTTTTTTTTTTTT DIIS        TELAPSE        5.74 TCPU        5.45
 DIIS TEST: 0.38567E-03 AT SCF   CYCLE   3 - DIIS ACTIVE - HISTORY:     3 CYCLES
 TTTTTTTTTTTTTTTTTTTTTTTTTTTTTT FDIK        TELAPSE        5.88 TCPU        5.58
 INSULATING STATE
 TOP OF VALENCE BANDS -    BAND     80; K   17; EIG -1.6675836E-02 AU
 TOP OF VALENCE BANDS -    BAND     80; K    1; EIG -2.0331312E-02 AU
 BOTTOM OF VIRTUAL BANDS - BAND     81; K    1; EIG  2.6480437E-01 AU
 INDIRECT ENERGY BAND GAP:   7.6595 eV
 TTTTTTTTTTTTTTTTTTTTTTTTTTTTTT PDIG        TELAPSE        5.97 TCPU        5.68
 TTTTTTTTTTTTTTTTTTTTTTTTTTTTTT MOQGAD      TELAPSE        6.04 TCPU        5.74
 TTTTTTTTTTTTTTTTTTTTTTTTTTTTTT SHELLXN     TELAPSE        6.39 TCPU        6.05
 TTTTTTTTTTTTTTTTTTTTTTTTTTTTTT MONMO3      TELAPSE        6.45 TCPU        6.12
 NUMERICALLY INTEGRATED DENSITY    159.9974123690
 TTTTTTTTTTTTTTTTTTTTTTTTTTTTTT NUMDFT      TELAPSE        6.71 TCPU        6.38
 CYC   4 ETOT(AU) -2.175723331615E+03 DETOT -1.37E-04 tst  2.62E-06 PX  2.37E-03
 TTTTTTTTTTTTTTTTTTTTTTTTTTTTTT DIIS        TELAPSE        6.71 TCPU        6.38
 DIIS TEST: 0.18999E-06 AT SCF   CYCLE   4 - DIIS ACTIVE - HISTORY:     4 CYCLES
 TTTTTTTTTTTTTTTTTTTTTTTTTTTTTT FDIK        TELAPSE        6.83 TCPU        6.49
 INSULATING STATE
 TOP OF VALENCE BANDS -    BAND     80; K   17; EIG -1.6566396E-02 AU
 TOP OF VALENCE BANDS -    BAND     80; K    1; EIG -2.0227012E-02 AU
 BOTTOM OF VIRTUAL BANDS - BAND     81; K    1; EIG  2.6491272E-01 AU
 INDIRECT ENERGY BAND GAP:   7.6594 eV
 TTTTTTTTTTTTTTTTTTTTTTTTTTTTTT PDIG        TELAPSE        6.95 TCPU        6.61
 TTTTTTTTTTTTTTTTTTTTTTTTTTTTTT MOQGAD      TELAPSE        7.01 TCPU        6.69
 TTTTTTTTTTTTTTTTTTTTTTTTTTTTTT SHELLXN     TELAPSE        7.33 TCPU        6.97
 TTTTTTTTTTTTTTTTTTTTTTTTTTTTTT MONMO3      TELAPSE        7.40 TCPU        7.04
 NUMERICALLY INTEGRATED DENSITY    159.9974124932
 TTTTTTTTTTTTTTTTTTTTTTTTTTTTTT NUMDFT      TELAPSE        7.64 TCPU        7.29
 CYC   5 ETOT(AU) -2.175723331632E+03 DETOT -1.71E-08 tst  1.34E-09 PX  5.59E-05
 TTTTTTTTTTTTTTTTTTTTTTTTTTTTTT DIIS        TELAPSE        7.64 TCPU        7.29
 DIIS TEST: 0.56684E-08 AT SCF   CYCLE   5 - DIIS ACTIVE - HISTORY:     5 CYCLES
 TTTTTTTTTTTTTTTTTTTTTTTTTTTTTT FDIK        TELAPSE        7.79 TCPU        7.43
 INSULATING STATE
 TOP OF VALENCE BANDS -    BAND     80; K   17; EIG -1.6576972E-02 AU
 TOP OF VALENCE BANDS -    BAND     80; K    1; EIG -2.0237758E-02 AU
 BOTTOM OF VIRTUAL BANDS - BAND     81; K    1; EIG  2.6490704E-01 AU
 INDIRECT ENERGY BAND GAP:   7.6596 eV
 TTTTTTTTTTTTTTTTTTTTTTTTTTTTTT PDIG        TELAPSE        7.93 TCPU        7.58
 TTTTTTTTTTTTTTTTTTTTTTTTTTTTTT MOQGAD      TELAPSE        7.99 TCPU        7.64
 TTTTTTTTTTTTTTTTTTTTTTTTTTTTTT SHELLXN     TELAPSE        8.35 TCPU        7.96
 TTTTTTTTTTTTTTTTTTTTTTTTTTTTTT MONMO3      TELAPSE        8.41 TCPU        8.02
 NUMERICALLY INTEGRATED DENSITY    159.9974124803
 TTTTTTTTTTTTTTTTTTTTTTTTTTTTTT NUMDFT      TELAPSE        8.66 TCPU        8.25
 CYC   6 ETOT(AU) -2.175723331641E+03 DETOT -9.26E-09 tst  2.07E-11 PX  8.93E-06
 TTTTTTTTTTTTTTTTTTTTTTTTTTTTTT DIIS        TELAPSE        8.67 TCPU        8.25
 DIIS TEST: 0.15312E-11 AT SCF   CYCLE   6 - DIIS ACTIVE - HISTORY:     6 CYCLES
 TTTTTTTTTTTTTTTTTTTTTTTTTTTTTT FDIK        TELAPSE        8.80 TCPU        8.38
 INSULATING STATE
 TOP OF VALENCE BANDS -    BAND     80; K   17; EIG -1.6577296E-02 AU
 TOP OF VALENCE BANDS -    BAND     80; K    1; EIG -2.0238100E-02 AU
 BOTTOM OF VIRTUAL BANDS - BAND     81; K    1; EIG  2.6490701E-01 AU
 INDIRECT ENERGY BAND GAP:   7.6596 eV
 TTTTTTTTTTTTTTTTTTTTTTTTTTTTTT PDIG        TELAPSE        8.88 TCPU        8.46
 TTTTTTTTTTTTTTTTTTTTTTTTTTTTTT MOQGAD      TELAPSE        8.99 TCPU        8.56
 TTTTTTTTTTTTTTTTTTTTTTTTTTTTTT SHELLXN     TELAPSE        9.31 TCPU        8.85
 TTTTTTTTTTTTTTTTTTTTTTTTTTTTTT MONMO3      TELAPSE        9.38 TCPU        8.91
 NUMERICALLY INTEGRATED DENSITY    159.9974124804
 TTTTTTTTTTTTTTTTTTTTTTTTTTTTTT NUMDFT      TELAPSE        9.62 TCPU        9.14
 CYC   7 ETOT(AU) -2.175723331641E+03 DETOT -9.78E-11 tst  3.76E-14 PX  3.68E-07
 TTTTTTTTTTTTTTTTTTTTTTTTTTTTTT DIIS        TELAPSE        9.62 TCPU        9.15
 DIIS TEST: 0.41451E-14 AT SCF   CYCLE   7 - DIIS ACTIVE - HISTORY:     7 CYCLES
 TTTTTTTTTTTTTTTTTTTTTTTTTTTTTT FDIK        TELAPSE        9.79 TCPU        9.31
 INSULATING STATE
 TOP OF VALENCE BANDS -    BAND     80; K   17; EIG -1.6577286E-02 AU
 TOP OF VALENCE BANDS -    BAND     80; K    1; EIG -2.0238090E-02 AU
 BOTTOM OF VIRTUAL BANDS - BAND     81; K    1; EIG  2.6490702E-01 AU
 INDIRECT ENERGY BAND GAP:   7.6596 eV
 TTTTTTTTTTTTTTTTTTTTTTTTTTTTTT PDIG        TELAPSE        9.88 TCPU        9.41
 TTTTTTTTTTTTTTTTTTTTTTTTTTTTTT MOQGAD      TELAPSE        9.99 TCPU        9.52
 TTTTTTTTTTTTTTTTTTTTTTTTTTTTTT SHELLXN     TELAPSE       10.34 TCPU        9.82
 ::: PSEUDO TOTAL   ENERGY                        -2.0129068835337E+03
 ::: VIRIAL COEFFICIENT                            1.0286401131368E+00
 TTTTTTTTTTTTTTTTTTTTTTTTTTTTTT MONMO3      TELAPSE       10.40 TCPU        9.88
 NUMERICALLY INTEGRATED DENSITY    159.9974124804
 EXCHANGE ENERGY: -0.155320873725E+03  CORRELATION ENERGY: -0.749557438270E+01
 TTTTTTTTTTTTTTTTTTTTTTTTTTTTTT NUMDFT      TELAPSE       10.63 TCPU       10.11
 CYC   8 ETOT(AU) -2.175723331641E+03 DETOT  1.68E-11 tst  5.26E-17 PX  3.68E-07

 == SCF ENDED - CONVERGENCE ON ENERGY      E(AU) -2.1757233316415E+03 CYCLES   8


 ENERGY EXPRESSION=HARTREE+FOCK EXCH*0.20000+(BECKE      EXCH)*0.80000+LYP        CORR


 TOTAL ENERGY(DFT)(AU)(  8) -2.1757233316415E+03 DE 1.7E-11 tester 5.3E-17
 TTTTTTTTTTTTTTTTTTTTTTTTTTTTTT EDFT        TELAPSE       10.64 TCPU       10.12

 *******************************************************************************
 *                             FORCE CALCULATION                               *
 *******************************************************************************

 TTTTTTTTTTTTTTTTTTTTTTTTTTTTTT NUMDFG      TELAPSE       11.79 TCPU       11.35
 INFORMATION **** EXCPOG **** EXCH. BIPO BUFFER LENGTH (WORDS) =     1486260
 INFORMATION **** GENPOG **** BIPO BUFFER LENGTH (WORDS) =      183200
 TTTTTTTTTTTTTTTTTTTTTTTTTTTTTT SHELXG      TELAPSE       15.45 TCPU       14.48

 CARTESIAN FORCES IN HARTREE/BOHR (ANALYTICAL)
   ATOM                     X                   Y                   Z
   1  12            -3.490247379324E-15 -2.165434380101E-15 -2.447675788321E-15
   2   8             2.483704511531E-15  3.322390529578E-15  5.081162687227E-15
   3  12             2.528330980511E-15 -4.440892098501E-15  3.815016050681E-15
   4  12             9.251858538543E-16  4.191874620267E-16  9.630294424900E-16
   5  12            -5.329070518201E-15  1.993953526677E-15  6.155257881257E-15
   6  12            -1.151899918067E-16  1.739349405246E-15  3.264576514652E-16
   7  12             3.274845966140E-15 -7.268317591403E-16 -9.621932880085E-16
   8  12            -4.829896303973E-16  1.546753862380E-15 -1.382904249176E-15
   9  12             4.900508355347E-15  3.566722420324E-15 -6.106226635438E-15
  10   8            -2.271154392242E-15 -1.022222298054E-15  6.984101820726E-09
  11   8            -1.871030873720E-15  6.984101744675E-09 -6.009208198977E-16
  12   8            -6.984102254168E-09  6.130058049387E-16  1.341898908605E-15
  13   8             6.984102194978E-09 -2.067307031022E-15 -1.019157516712E-15
  14   8            -9.485222897841E-16 -6.984100314189E-09 -3.959317217696E-15
  15   8             9.034253784374E-16  1.032262933789E-16 -6.984101075058E-09
  16   8            -1.554173578742E-15 -3.885292884667E-15 -2.840551971963E-15

 RESULTANT FORCE    -1.105568337883E-15  4.270946106971E-16 -8.904570366501E-16

 SYMMETRY ALLOWED FORCES (ANALYTICAL) (DIRECTION, FORCE)

    1  1.7107485E-08
 TTTTTTTTTTTTTTTTTTTTTTTTTTTTTT TOTGRA      TELAPSE       15.85 TCPU       14.80

 HHHHHHHHHHHHHHHHHHHHHHHHHHHHHHHHHHHHHHHHHHHHHHHHHHHHHHHHHHHHHHHHHHHHHHHHHHHHHHH
                   FORCE CONSTANT MATRIX - NUMERICAL ESTIMATE
 HHHHHHHHHHHHHHHHHHHHHHHHHHHHHHHHHHHHHHHHHHHHHHHHHHHHHHHHHHHHHHHHHHHHHHHHHHHHHHH
 MAX ABS(DGRAD): MAXIMUM ABSOLUTE GRADIENT DIFFERENCE WITH RESPECT TO
                 THE CENTRAL POINT
 DE:             ENERGY DIFFERENCE WITH RESPECT TO THE CENTRAL POINT
                 (DE IS EXPECTED TO BE POSITIVE FOR ALL DISPLACEMENTS)

   ATOM      MAX ABS(DGRAD)       TOTAL ENERGY (AU)  N.CYC      DE       SYM
    CENTRAL POINT             -2.175723331641E+03     8     0.0000E+00    48
    1 MG DX   1.4523E-03      -2.175723327625E+03     5     4.0161E-06     8
    1 MG DY                   GENERATED FROM A PREVIOUS LINE
    1 MG DZ                   GENERATED FROM A PREVIOUS LINE
    2 O  DX   1.4187E-03      -2.175723327877E+03     6     3.7647E-06     4
    2 O  DY                   GENERATED FROM A PREVIOUS LINE
    2 O  DZ                   GENERATED FROM A PREVIOUS LINE

 GCALCO - MAX INDICES DIRECT LATTICE VECTOR    14    14    14
 NO.OF VECTORS CREATED 6999 STARS  105 RMAX   111.87929 BOHR

 CAPPA:IS1  8;IS2  8;IS3  8; K PTS MONK NET  29; SYMMOPS:K SPACE  48;G SPACE  48

 TTTTTTTTTTTTTTTTTTTTTTTTTTTTTT gordsh1     TELAPSE       74.81 TCPU       74.22

 MATRIX SIZE: P(G)  143440, F(G)   21728, P(G) IRR    3349, F(G) IRR    1393
 MAX G-VECTOR INDEX FOR 1- AND 2-ELECTRON INTEGRALS 133

 TTTTTTTTTTTTTTTTTTTTTTTTTTTTTT INPUT       TELAPSE       74.81 TCPU       74.22

 SYMMETRY ALLOWED INTERNAL DEGREE(S) OF FREEDOM:   1
 TTTTTTTTTTTTTTTTTTTTTTTTTTTTTT SYMM        TELAPSE       74.88 TCPU       74.29
 TTTTTTTTTTTTTTTTTTTTTTTTTTTTTT INT_SCREEN  TELAPSE       74.89 TCPU       74.30

 GCALCO - MAX INDICES DIRECT LATTICE VECTOR    14    14    14
 NO.OF VECTORS CREATED 6999 STARS  105 RMAX    55.93965 BOHR
 TTTTTTTTTTTTTTTTTTTTTTTTTTTTTT gordsh1     TELAPSE       74.89 TCPU       74.30

 MATRIX SIZE: P(G)   17930, F(G)    2900, P(G) IRR     750, F(G) IRR     362
 MAX G-VECTOR INDEX FOR 1- AND 2-ELECTRON INTEGRALS 417

 TTTTTTTTTTTTTTTTTTTTTTTTTTTTTT INPUT       TELAPSE       74.89 TCPU       74.30

 THERE ARE NO SYMMETRY ALLOWED DIRECTIONS
 TTTTTTTTTTTTTTTTTTTTTTTTTTTTTT SYMM        TELAPSE       74.89 TCPU       74.30
 TTTTTTTTTTTTTTTTTTTTTTTTTTTTTT INT_SCREEN  TELAPSE       74.89 TCPU       74.30

 +++ SYMMETRY ADAPTION OF VIBRATIONAL MODES +++


 CLASS  | GROUP OPERATORS (SEE SYMMOPS KEYWORD)
 --------------------------------------------------------------------
 C2     |   2;   3;   4;
 C3     |   5;  11;   7;   9;   6;  12;  10;   8;
 C2'    |  13;  14;  17;  18;  23;  24;
 C4     |  15;  16;  19;  20;  21;  22;
 I      |  25;
 SGH    |  26;  27;  28;
 S6     |  29;  35;  31;  33;  30;  36;  34;  32;
 SGD    |  37;  38;  41;  42;  47;  48;
 S4     |  39;  40;  43;  44;  45;  46;

 IRREP/CLA      E     C2     C3    C2'     C4      I    SGH     S6    SGD     S4
 -------------------------------------------------------------------------------
  MULTIP |      1      3      8      6      6      1      3      8      6      6
 -------------------------------------------------------------------------------
    Fu   |   3.00  -1.00   0.00  -1.00   1.00  -3.00   1.00   0.00   1.00  -1.00
 

 Fu -(3,   2);


  DISPERSION K POINT NUMBER     1 COORD:  R(  0  0  0 )    WEIGHT:    1.


 HHHHHHHHHHHHHHHHHHHHHHHHHHHHHHHHHHHHHHHHHHHHHHHHHHHHHHHHHHHHHHHHHHHHHHHHHHHHHH
 EIGENVALUES (EIGV) OF THE MASS WEIGHTED HESSIAN MATRIX AND HARMONIC TRANSVERSE
 OPTICAL (TO) FREQUENCIES. IRREP LABELS REFER TO SYMMETRY REPRESENTATION
 ANALYSIS; A AND I INDICATE WHETHER THE MODE IS ACTIVE OR INACTIVE,
 RESPECTIVELY, FOR IR AND RAMAN; INTEGRATED IR INTENSITIES IN BRACKETS.

 CONVERSION FACTORS FOR FREQUENCIES:
      1 CM**(-1) =   0.4556335E-05 HARTREE
      1 THZ      =   0.3335641E+02 CM**(-1)

 HHHHHHHHHHHHHHHHHHHHHHHHHHHHHHHHHHHHHHHHHHHHHHHHHHHHHHHHHHHHHHHHHHHHHHHHHHHHHH

    MODES         EIGV          FREQUENCIES     IRREP  IR   INTENS    RAMAN
             (HARTREE**2)   (CM**-1)     (THZ)             (KM/MOL)
    1-   3    0.2379E-21      0.0000    0.0000  (Fu )   A (     0.00)   I
    4-   6    0.8708E-05    647.6726   19.4167  (Fu )   A (     0.00)   I

 NORMAL MODES NORMALIZED TO CLASSICAL AMPLITUDES (IN BOHR)

 FREQ(CM**-1)      0.00      0.00      0.00    647.67    647.67    647.67

 AT.   1 MG X    -0.1582    0.0000    0.0000    0.0000   -0.1292    0.0000
            Y     0.0000   -0.1582    0.0000   -0.1292    0.0000    0.0000
            Z     0.0000    0.0000   -0.1582    0.0000    0.0000   -0.1292
 AT.   2 O  X    -0.1582    0.0000    0.0000    0.0000    0.1937    0.0000
            Y     0.0000   -0.1582    0.0000    0.1937    0.0000    0.0000
            Z     0.0000    0.0000   -0.1582    0.0000    0.0000    0.1937

 *******************************************************************************

 VIBRATIONAL TEMPERATURES (K) OF THE MODES AT THE GAMMA POINT

 TO MODES
   931.9 [   4;]   931.9 [   5;]   931.9 [   6;]


  DISPERSION K POINT NUMBER     2 COORD:  R(  0  0  1 )    WEIGHT:    1.

    MODES         EIGV          FREQUENCIES     IRREP
             (HARTREE**2)   (CM**-1)     (THZ)
    1-   2    0.4294E-05    454.7817   13.6340  (  2)
    3-   4    0.6372E-05    554.0151   16.6090  (  4)
    5-   5    0.1095E-04    726.1892   21.7706  (  1)
    6-   6    0.1321E-04    797.5954   23.9113  (  3)

 MODES IN PHASE

 FREQ(CM**-1)    454.78    454.78    554.02    554.02    726.19    797.60

 AT.   1 MG X    -0.1444   -0.0834    0.0000    0.0000    0.1179    0.0000
            Y     0.1444   -0.0834    0.0000    0.0000    0.1179    0.0000
            Z     0.0000   -0.1667    0.0000    0.0000   -0.1179    0.0000
 AT.   2 O  X     0.0000    0.0000   -0.1768   -0.1021    0.0000    0.1444
            Y     0.0000    0.0000    0.1768   -0.1021    0.0000    0.1444
            Z     0.0000    0.0000    0.0000   -0.2042    0.0000   -0.1444


  DISPERSION K POINT NUMBER     3 COORD:  R(  0  1  0 )    WEIGHT:    1.

    MODES         EIGV          FREQUENCIES     IRREP
             (HARTREE**2)   (CM**-1)     (THZ)
    1-   2    0.4294E-05    454.7817   13.6340  (  2)
    3-   4    0.6372E-05    554.0151   16.6090  (  4)
    5-   5    0.1095E-04    726.1892   21.7706  (  1)
    6-   6    0.1321E-04    797.5954   23.9113  (  3)

 MODES IN PHASE

 FREQ(CM**-1)    454.78    454.78    554.02    554.02    726.19    797.60

 AT.   1 MG X     0.1444    0.0834    0.0000    0.0000    0.1179    0.0000
            Y     0.1444   -0.0834    0.0000    0.0000   -0.1179    0.0000
            Z     0.0000   -0.1667    0.0000    0.0000    0.1179    0.0000
 AT.   2 O  X     0.0000    0.0000    0.1768    0.1021    0.0000    0.1444
            Y     0.0000    0.0000    0.1768   -0.1021    0.0000   -0.1444
            Z     0.0000    0.0000    0.0000   -0.2042    0.0000    0.1444


  DISPERSION K POINT NUMBER     4 COORD:  R(  0  1  1 )    WEIGHT:    1.

    MODES         EIGV          FREQUENCIES     IRREP
             (HARTREE**2)   (CM**-1)     (THZ)
    1-   2    0.2619E-05    355.1726   10.6478  (  2)
    3-   3    0.6638E-05    565.4712   16.9524  (  1)
    4-   5    0.1048E-04    710.5492   21.3017  (  2)
    6-   6    0.1334E-04    801.6647   24.0333  (  1)

 MODES IN PHASE

 FREQ(CM**-1)    355.17    355.17    565.47    710.55    710.55    801.66

 AT.   1 MG X     0.0000    0.0000   -0.1901    0.0000    0.0000   -0.0746
            Y    -0.1720    0.0000    0.0000   -0.1101    0.0000    0.0000
            Z     0.0000    0.1720    0.0000    0.0000    0.1101    0.0000
 AT.   2 O  X     0.0000    0.0000   -0.0914    0.0000    0.0000    0.2327
            Y     0.1348    0.0000    0.0000   -0.2106    0.0000    0.0000
            Z     0.0000   -0.1348    0.0000    0.0000    0.2106    0.0000


  DISPERSION K POINT NUMBER     5 COORD:  R(  1  0  0 )    WEIGHT:    1.

    MODES         EIGV          FREQUENCIES     IRREP
             (HARTREE**2)   (CM**-1)     (THZ)
    1-   2    0.4294E-05    454.7817   13.6340  (  2)
    3-   4    0.6372E-05    554.0151   16.6090  (  4)
    5-   5    0.1095E-04    726.1892   21.7706  (  1)
    6-   6    0.1321E-04    797.5954   23.9113  (  3)

 MODES IN PHASE

 FREQ(CM**-1)    454.78    454.78    554.02    554.02    726.19    797.60

 AT.   1 MG X     0.1444    0.0834    0.0000    0.0000    0.1179    0.0000
            Y     0.1444   -0.0834    0.0000    0.0000   -0.1179    0.0000
            Z     0.0000    0.1667    0.0000    0.0000   -0.1179    0.0000
 AT.   2 O  X     0.0000    0.0000    0.1768    0.1021    0.0000    0.1444
            Y     0.0000    0.0000    0.1768   -0.1021    0.0000   -0.1444
            Z     0.0000    0.0000    0.0000    0.2042    0.0000   -0.1444


  DISPERSION K POINT NUMBER     6 COORD:  R(  1  0  1 )    WEIGHT:    1.

    MODES         EIGV          FREQUENCIES     IRREP
             (HARTREE**2)   (CM**-1)     (THZ)
    1-   2    0.2619E-05    355.1726   10.6478  (  1)
    3-   3    0.6638E-05    565.4712   16.9524  (  2)
    4-   5    0.1048E-04    710.5492   21.3017  (  1)
    6-   6    0.1334E-04    801.6647   24.0333  (  2)

 MODES IN PHASE

 FREQ(CM**-1)    355.17    355.17    565.47    710.55    710.55    801.66

 AT.   1 MG X    -0.1720    0.0000    0.0000    0.0000   -0.1101    0.0000
            Y     0.0000    0.0000   -0.1901    0.0000    0.0000   -0.0746
            Z     0.0000    0.1720    0.0000    0.1101    0.0000    0.0000
 AT.   2 O  X     0.1348    0.0000    0.0000    0.0000   -0.2106    0.0000
            Y     0.0000    0.0000   -0.0914    0.0000    0.0000    0.2327
            Z     0.0000   -0.1348    0.0000    0.2106    0.0000    0.0000


  DISPERSION K POINT NUMBER     7 COORD:  R(  1  1  0 )    WEIGHT:    1.

    MODES         EIGV          FREQUENCIES     IRREP
             (HARTREE**2)   (CM**-1)     (THZ)
    1-   2    0.2619E-05    355.1726   10.6478  (  1)
    3-   3    0.6638E-05    565.4712   16.9524  (  2)
    4-   5    0.1048E-04    710.5492   21.3017  (  1)
    6-   6    0.1334E-04    801.6647   24.0333  (  2)

 MODES IN PHASE

 FREQ(CM**-1)    355.17    355.17    565.47    710.55    710.55    801.66

 AT.   1 MG X    -0.1720    0.0000    0.0000    0.0000   -0.1101    0.0000
            Y     0.0000    0.1720    0.0000    0.1101    0.0000    0.0000
            Z     0.0000    0.0000   -0.1901    0.0000    0.0000   -0.0746
 AT.   2 O  X     0.1348    0.0000    0.0000    0.0000   -0.2106    0.0000
            Y     0.0000   -0.1348    0.0000    0.2106    0.0000    0.0000
            Z     0.0000    0.0000   -0.0914    0.0000    0.0000    0.2327


  DISPERSION K POINT NUMBER     8 COORD:  R(  1  1  1 )    WEIGHT:    1.

    MODES         EIGV          FREQUENCIES     IRREP
             (HARTREE**2)   (CM**-1)     (THZ)
    1-   2    0.4294E-05    454.7817   13.6340  (  2)
    3-   4    0.6372E-05    554.0151   16.6090  (  4)
    5-   5    0.1095E-04    726.1892   21.7706  (  1)
    6-   6    0.1321E-04    797.5954   23.9113  (  3)

 MODES IN PHASE

 FREQ(CM**-1)    454.78    454.78    554.02    554.02    726.19    797.60

 AT.   1 MG X    -0.1444   -0.0834    0.0000    0.0000    0.1179    0.0000
            Y     0.1444   -0.0834    0.0000    0.0000    0.1179    0.0000
            Z     0.0000    0.1667    0.0000    0.0000    0.1179    0.0000
 AT.   2 O  X     0.0000    0.0000   -0.1768   -0.1021    0.0000    0.1444
            Y     0.0000    0.0000    0.1768   -0.1021    0.0000    0.1444
            Z     0.0000    0.0000    0.0000    0.2042    0.0000    0.1444

 TTTTTTTTTTTTTTTTTTTTTTTTTTTTTTTTTTTTTTTTTTTTTTTTTTTTTTTTTTTTTTTTTTTTTTTTTTTTTTT

  THERMODYNAMICAL PROPERTIES ARE CALCULATED AS A SUM OVER    45 MODES



 *******************************************************************************

 HARMONIC VIBRATIONAL CONTRIBUTIONS TO THERMODYNAMIC FUNCTIONS AT GIVEN
 TEMPERATURE AND PRESSURE:

 (EL = ELECTRONIC ENERGY
  E0 = ZERO-POINT ENERGY
  ET = THERMAL CONTRIBUTION TO THE VIBRATIONAL ENERGY
  PV = PRESSURE * VOLUME
  TS = TEMPERATURE * ENTROPY)

                          AU/CELL             EV/CELL                 KJ/MOL
 EL            :    -271.965416455181   -7400.555218702611     -714045.10027587
 E0            :       0.007576123068       0.206156789484          19.89110831


 *******************************************************************************

 THERMODYNAMIC FUNCTIONS WITH VIBRATIONAL CONTRIBUTIONS

 AT (T =  298.15 K, P =   0.10132500E+00 MPA):

                          AU/CELL             EV/CELL                 KJ/MOL
 ET            :       0.001033341406       0.028118649185           2.71303748
 PV            :       0.000000359647       0.000009786486           0.00094425
 TS            :       0.001448239812       0.039408608772           3.80235309
 ET+PV-TS      :      -0.000414538759      -0.011280173102          -1.08837136
 EL+E0+ET+PV-TS:    -271.958254870873   -7400.360342086229     -714026.29753892

 OTHER THERMODYNAMIC FUNCTIONS:

                      mHARTREE/(CELL*K)     mEV/(CELL*K)              J/(MOL*K)
 ENTROPY       :       0.004857420130       0.132177121489          12.75315475
 HEAT CAPACITY :       0.009539900586       0.259593892432          25.04700546

 *******************************************************************************
 TTTTTTTTTTTTTTTTTTTTTTTTTTTTTT END         TELAPSE       74.92 TCPU       74.33
 EEEEEEEEEE TERMINATION  DATE 05 09 2024 TIME 10:14:57.0
================================================================================
Time: Thu 05 Sep 2024 10:14:57 AM CEST
Job terminated
================================================================================
Copying output file back on run directory...
================================================================================
Removing temporary directory /scratch/tmp_p4665_erba from each node...
Job terminated
