/home/erba/Mitoli/pub/bin/Linux-ifort_openmpi_i64_clut/std/Pcrystal
/scratch/alessandro/tmp_p22048
script started on node80
MgO conventional - PBE/pob-DVZVP-rev2 - QHA
CRYSTAL
0 0 0
225
4.26844350
2
 12 0.    0.    0.
  8 0.5   0.5   0.5
SUPERCON
1 0 0
0 1 0
0 0 1
QHA
END
BASISSET
POB-DZVP-REV2
DFT
PBE
END
SHRINK
8 8
TOLINTEG
8 8 8 8 16
TOLDEE
10
END
************************************************
ANOTHER DROLLERY FILLED RUN OF THE CRYSTAL CODE!
************************************************
Thu 12 Sep 2024 02:52:45 PM CEST
 PROCESS            4  OF           10  WORKING
 PROCESS            6  OF           10  WORKING
 PROCESS            8  OF           10  WORKING
 PROCESS            7  OF           10  WORKING
 PROCESS            9  OF           10  WORKING
 PROCESS            0  OF           10  WORKING
 PROCESS            1  OF           10  WORKING
 PROCESS            2  OF           10  WORKING
 PROCESS            3  OF           10  WORKING
 PROCESS            5  OF           10  WORKING

         
 *******************************************************************************
 *                                                                             *
 *                               CRYSTAL23                                     *
 *                      public : 1.0.1 - October 2022                          *
 *                       HTTP://WWW.CRYSTAL.UNITO.IT                           *
 *                                                                             *
 *                              MAIN AUTHORS                                   *
 *                                                                             *
 *  R. DOVESI(1,11), V.R. SAUNDERS(2), C. ROETTI(1,11), R. ORLANDO(1,11),      *
 *  C.M. ZICOVICH-WILSON(1,3), F. PASCALE(4), B. CIVALLERI(1,11),              *
 *  K. DOLL(5), N.M. HARRISON(6), I.J. BUSH(7), Ph. D'ARCO(8),                 *
 *  M. LLUNELL(9), M. CAUSA'(10), Y. NOEL(8), L. MASCHIO(1,11), A. ERBA(1,11)  *
 *  M. RE'RAT(14), S. CASASSA(1,11), B.G. SEARLE(2), J.K. DESMARAIS(1)         *
 *                                                                             *
 *        CONTRIBUTIONS TO THE CODE HAVE ALSO BEEN GIVEN BY                    *
 *                                                                             *
 *  M. FERRABONE(1,11), M. DE LA PIERRE(1,11), M. FERRERO(1,11),               *
 *  J. BAIMA(1,11), E. ALBANESE(1,11), M.F. PEINTINGER(12), R. BAST(13),       *
 *  B. KIRTMAN(15), V. LACIVITA(1,11), R. DEMICHELIS(1,16)                     *
 *  G. BRANDEBURG(17), S. SALUSTRO(1,11), G. SANSONE(1,11)                     *
 *  M.T. RUGGIERO(18), L.E. DAGA(1), L. DONA'(1), A. COSSARD(1)                *
 *                                                                             *
 * (1) THEORETICAL CHEMISTRY GROUP - UNIVERSITA' DI TORINO - TORINO (ITALY)    *
 * (2) SCIENTIFIC COMPUTING DEPARTMENT - STFC DARESBURY (UK)                   *
 * (3) UNIVERSIDAD AUTONOMA DEL ESTADO DE MORELOS - CUERNAVACA (MEXICO)        *
 * (4) UNIVERSITE' DE LORRAINE - NANCY (FRANCE)                                *
 * (5) UNIVERSITAET STUTTGART- STUTTGART (GERMANY)                             *
 * (6) IMPERIAL COLLEGE - LONDON (UK)                                          *
 * (7) SCIENTIFIC COMPUTING DEPARTMENT - STFC RAL (UK)                         *
 * (8) UPMC - SORBONNE UNIVERSITES - PARIS (FRANCE)                            *
 * (9) UNIVERSIDAD DE BARCELONA - BARCELONA (SPAIN)                            *
 *(10) UNIVERSITA' DI NAPOLI "FEDERICO II" - NAPOLI (ITALY)                    *
 *(11) NIS - NANOSTRUCTURED INTERFACES AND SURFACES - TORINO (ITALY)           *
 *(12) MPI FUER CHEMISCHE ENERGIEKONVERSION - MUELHEIM AN DER RUHR (GERMANY)   *
 *(13) UNIVERSITY OF TROMSO - TROMSO (NORWAY)                                  *
 *(14) UNIVERSITE' DE PAU ET DES PAYS DE L'ADOUR - PAU (FRANCE)                *
 *(15) UNIVERSITY OF CALIFORNIA SANTA BARBARA - SANTA BARBARA (USA)            *
 *(16) CURTIN UNIVERSITY - PERTH (AUSTRALIA)                                   *
 *(17) UNIVERSITY COLLEGE LONDON - LONDON (UK)                                 *
 *(18) UNIVERSITY OF VERMONT - BURLINGTON (USA)                                *
 *                                                                             *
 *******************************************************************************
 EEEEEEEEEE STARTING  DATE 12 09 2024 TIME 14:52:46.1
 MgO conventional - PBE/pob-DVZVP-rev2 - QHA                                     

 CRYSTAL CALCULATION
 (INPUT ACCORDING TO THE INTERNATIONAL TABLES FOR X-RAY CRYSTALLOGRAPHY)
 CRYSTAL FAMILY                       :  CUBIC       
 CRYSTAL CLASS  (GROTH - 1921)        :  CUBIC HEXAKISOCTAHEDRAL              

 SPACE GROUP (CENTROSYMMETRIC)        :  F M 3 M         

 LATTICE PARAMETERS  (ANGSTROMS AND DEGREES) - CONVENTIONAL CELL
        A           B           C        ALPHA        BETA       GAMMA
     4.26844     4.26844     4.26844    90.00000    90.00000    90.00000


 NUMBER OF IRREDUCIBLE ATOMS IN THE CONVENTIONAL CELL:    2

 INPUT COORDINATES

 ATOM AT. N.              COORDINATES
   1  12     0.000000000000E+00  0.000000000000E+00  0.000000000000E+00
   2   8     5.000000000000E-01  5.000000000000E-01  5.000000000000E-01

 *******************************************************************************

 << INFORMATION >>: FROM NOW ON, ALL COORDINATES REFER TO THE PRIMITIVE CELL

 *******************************************************************************

 LATTICE PARAMETERS  (ANGSTROMS AND DEGREES) - PRIMITIVE CELL
       A          B          C        ALPHA      BETA     GAMMA        VOLUME
    3.01825    3.01825    3.01825    60.00000  60.00000  60.00000     19.442344

 COORDINATES OF THE EQUIVALENT ATOMS (FRACTIONAL UNITS)

 N. ATOM EQUIV AT. N.          X                  Y                  Z

   1   1   1   12 MG    0.00000000000E+00  0.00000000000E+00  0.00000000000E+00

   2   2   1    8 O    -5.00000000000E-01 -5.00000000000E-01 -5.00000000000E-01

 NUMBER OF SYMMETRY OPERATORS         :   48
 *******************************************************************************
 * GEOMETRY EDITING - INPUT COORDINATES ARE GIVEN IN ANGSTROM         
 *******************************************************************************

 GEOMETRY NOW FULLY CONSISTENT WITH THE GROUP
 INFORMATION **** SUPERCON **** SUPERCELL EXPANSION MATRIX REFERS TO CRYSTALLOGRAPHIC CELL

 NO SYMMOPS WITH FINITE TRANSLATIONAL COMPONENT

 *******************************************************************************
 * SUPERCELL OPTION
 *******************************************************************************


        EXPANSION MATRIX OF CONVENTIONAL CELL
 E1     1.000     0.000     0.000
 E2     0.000     1.000     0.000
 E3     0.000     0.000     1.000

        EXPANSION MATRIX OF PRIMITIVE CELL
 E1    -1.000     1.000     1.000
 E2     1.000    -1.000     1.000
 E3     1.000     1.000    -1.000

 NUMBER OF ATOMS PER SUPERCELL     8

        DIRECT LATTICE VECTORS COMPONENTS (ANGSTROM)
 B1     4.268     0.000     0.000
 B2     0.000     4.268     0.000
 B3     0.000     0.000     4.268

 LATTICE PARAMETERS  (ANGSTROM AND DEGREES)
       A          B          C         ALPHA     BETA     GAMMA        VOLUME
    4.26844    4.26844    4.26844    90.00000  90.00000  90.00000     77.769376


 **** ATOMS BELONGING TO THE SUPERCELL
 LABEL AT.NO.      COORDINATES (ANGSTROM AND FRACTIONAL)
     1    12    -0.0000    -0.0000    -0.0000    -0.0000    -0.0000    -0.0000
     2    12     2.1342     2.1342    -0.0000     0.5000     0.5000    -0.0000
     3    12     2.1342    -0.0000     2.1342     0.5000    -0.0000     0.5000
     4    12     0.0000     2.1342     2.1342     0.0000     0.5000     0.5000
     5     8    -0.0000    -0.0000     2.1342    -0.0000    -0.0000     0.5000
     6     8     2.1342     2.1342     2.1342     0.5000     0.5000     0.5000
     7     8     2.1342    -0.0000     0.0000     0.5000    -0.0000     0.0000
     8     8     0.0000     2.1342     0.0000     0.0000     0.5000     0.0000

 **************************** SUPERCELL GENERATED ****************************
 INFORMATION **** NEW DEFAULT **** FINALRUN 4 FOR GEOMETRY OPTIMIZATIONS
 INFORMATION **** NEW DEFAULT **** OPTGEOM OPTIMIZES BOTH ATOMIC COORDINATES AND CELL PARAMETERS
 INFORMATION **** NEW DEFAULT **** TOL. ON ATOMIC DISP TO REDEFINE REF. GEOMETRY: 0.8 Angs
 INFORMATION **** NEW DEFAULT **** N POINTS TO REDEFINE REF. GEOMETRY: N OF OPT DEGS OF FREEDOM
 INFORMATION **** NEW DEFAULT **** TOL. ON ENERGY TO REDEFINE REF. GEOMETRY: 10**-3*(5*N. ATOMS)

 IMPORTANT INFORMATION:
 THE COORDINATE SYSTEM ADOPTED IN THE OPTIMIZATION IS NOT IN
 GENERAL HOMOGENEOUS UNITS. FOR THIS REASON THE GRADIENT AND 
 HESSIAN MATRIX IN TERMS OF THIS SYSTEM ARE GIVEN WITHOUT
 UNITS. FOR MORE DETAILS SEE THE MANUAL.

 INITIAL TRUST RADIUS         0.50000 MAXIMUM TRUST RADIUS               4.00000
 MAXIMUM GRADIENT COMPONENT   0.00045 MAXIMUM DISPLACEMENT COMPONENT     0.00180
 R.M.S. OF GRADIENT COMPONENT 0.00030 R.M.S. OF DISPLACEMENT COMPONENTS  0.00120
 THRESHOLD ON ENERGY CHANGE 0.100E-06 EXTRAPOLATING POLYNOMIAL ORDER           2
 MAXIMUM ALLOWED NUMBER OF STEPS   -1 SORTING OF ENERGY POINTS:               NO
 ANALYTICAL  GRADIENT                 HESSIAN UPDATING                      BFGS
 STEP SIZE NUMERICAL GRADIENT 0.00100
 INITIAL HESSIAN MATRIX: SCHLEGEL MODEL 2
 *******************************************************************************


 EOSEOSEOSEOSEOSEOSEOSEOSEOSEOSEOSEOSEOSEOSEOSEOSEOSEOSEOSEOSEOSEOSEOSEOSEOSEOS

                       EQUATION OF STATE CALCULATION

 INFORMATION **** TOLDEX **** CONVERGENCE CRITERION FOR RMS DISPLACEMENT MODIFIED  6.200000E-04
 INFORMATION **** TOLDEG **** MODIFY CONVERGENCE CRITERION FOR RMS GRADIENT  3.000000E-04
 INFORMATION **** TOLDEE **** CONVERGENCE CRITERION FOR ENERGY MODIFIED: 10**-           9

 GCALCO - MAX INDICES DIRECT LATTICE VECTOR    14    14    14
 NO.OF VECTORS CREATED 6999 STARS  120 RMAX    95.78069 BOHR

 GEOMETRY FOR WAVE FUNCTION - DIMENSIONALITY OF THE SYSTEM    3
 (NON PERIODIC DIRECTION: LATTICE PARAMETER FORMALLY SET TO 500)
 *******************************************************************************
 LATTICE PARAMETERS (ANGSTROMS AND DEGREES) - BOHR = 0.5291772083 ANGSTROM
 PRIMITIVE CELL - CENTRING CODE 1/0 VOLUME=    77.769376 - DENSITY  3.415 g/cm^3
         A              B              C           ALPHA      BETA       GAMMA 
     4.26844350     4.26844350     4.26844350    90.000000  90.000000  90.000000
 *******************************************************************************
 ATOMS IN THE ASYMMETRIC UNIT    4 - ATOMS IN THE UNIT CELL:    8
     ATOM                 X/A                 Y/B                 Z/C    
 *******************************************************************************
      1 T  12 MG   -2.220446049250E-16 -2.220446049250E-16 -2.220446049250E-16
      2 T  12 MG   -5.000000000000E-01 -5.000000000000E-01 -2.220446049250E-16
      3 F  12 MG   -5.000000000000E-01 -2.220446049250E-16 -5.000000000000E-01
      4 F  12 MG    0.000000000000E+00 -5.000000000000E-01 -5.000000000000E-01
      5 T   8 O    -2.220446049250E-16 -2.220446049250E-16 -5.000000000000E-01
      6 T   8 O    -5.000000000000E-01 -5.000000000000E-01 -5.000000000000E-01
      7 F   8 O    -5.000000000000E-01 -2.220446049250E-16  1.110223024625E-16
      8 F   8 O     0.000000000000E+00 -5.000000000000E-01  1.110223024625E-16

 T = ATOM BELONGING TO THE ASYMMETRIC UNIT

 ****   48 SYMMOPS - TRANSLATORS IN FRACTIONAL UNITS
 **** MATRICES AND TRANSLATORS IN THE CRYSTALLOGRAPHIC REFERENCE FRAME
   V INV                    ROTATION MATRICES                   TRANSLATORS
   1   1  1.00  0.00  0.00  0.00  1.00  0.00  0.00  0.00  1.00  0.00  0.00  0.00
   2   2 -1.00  0.00  0.00  0.00 -1.00  0.00  0.00  0.00  1.00  0.00  0.00  0.00
   3   3  1.00  0.00  0.00  0.00 -1.00  0.00  0.00  0.00 -1.00  0.00  0.00  0.00
   4   4 -1.00  0.00  0.00  0.00  1.00  0.00  0.00  0.00 -1.00  0.00  0.00  0.00
   5   6  0.00  0.00  1.00  1.00  0.00  0.00  0.00  1.00  0.00  0.00  0.00  0.00
   6   5  0.00  1.00  0.00  0.00  0.00  1.00  1.00  0.00  0.00  0.00  0.00  0.00
   7   8  0.00  0.00 -1.00 -1.00  0.00  0.00  0.00  1.00  0.00  0.00  0.00  0.00
   8   7  0.00 -1.00  0.00  0.00  0.00  1.00 -1.00  0.00  0.00  0.00  0.00  0.00
   9  10  0.00  0.00  1.00 -1.00  0.00  0.00  0.00 -1.00  0.00  0.00  0.00  0.00
  10   9  0.00 -1.00  0.00  0.00  0.00 -1.00  1.00  0.00  0.00  0.00  0.00  0.00
  11  12  0.00  0.00 -1.00  1.00  0.00  0.00  0.00 -1.00  0.00  0.00  0.00  0.00
  12  11  0.00  1.00  0.00  0.00  0.00 -1.00 -1.00  0.00  0.00  0.00  0.00  0.00
  13  13  0.00 -1.00  0.00 -1.00  0.00  0.00  0.00  0.00 -1.00  0.00  0.00  0.00
  14  14  0.00  1.00  0.00  1.00  0.00  0.00  0.00  0.00 -1.00  0.00  0.00  0.00
  15  16  0.00  1.00  0.00 -1.00  0.00  0.00  0.00  0.00  1.00  0.00  0.00  0.00
  16  15  0.00 -1.00  0.00  1.00  0.00  0.00  0.00  0.00  1.00  0.00  0.00  0.00
  17  17 -1.00  0.00  0.00  0.00  0.00 -1.00  0.00 -1.00  0.00  0.00  0.00  0.00
  18  18  0.00  0.00 -1.00  0.00 -1.00  0.00 -1.00  0.00  0.00  0.00  0.00  0.00
  19  21  1.00  0.00  0.00  0.00  0.00  1.00  0.00 -1.00  0.00  0.00  0.00  0.00
  20  22  0.00  0.00 -1.00  0.00  1.00  0.00  1.00  0.00  0.00  0.00  0.00  0.00
  21  19  1.00  0.00  0.00  0.00  0.00 -1.00  0.00  1.00  0.00  0.00  0.00  0.00
  22  20  0.00  0.00  1.00  0.00  1.00  0.00 -1.00  0.00  0.00  0.00  0.00  0.00
  23  23 -1.00  0.00  0.00  0.00  0.00  1.00  0.00  1.00  0.00  0.00  0.00  0.00
  24  24  0.00  0.00  1.00  0.00 -1.00  0.00  1.00  0.00  0.00  0.00  0.00  0.00
  25  25 -1.00  0.00  0.00  0.00 -1.00  0.00  0.00  0.00 -1.00  0.00  0.00  0.00
  26  26  1.00  0.00  0.00  0.00  1.00  0.00  0.00  0.00 -1.00  0.00  0.00  0.00
  27  27 -1.00  0.00  0.00  0.00  1.00  0.00  0.00  0.00  1.00  0.00  0.00  0.00
  28  28  1.00  0.00  0.00  0.00 -1.00  0.00  0.00  0.00  1.00  0.00  0.00  0.00
  29  30  0.00  0.00 -1.00 -1.00  0.00  0.00  0.00 -1.00  0.00  0.00  0.00  0.00
  30  29  0.00 -1.00  0.00  0.00  0.00 -1.00 -1.00  0.00  0.00  0.00  0.00  0.00
  31  32  0.00  0.00  1.00  1.00  0.00  0.00  0.00 -1.00  0.00  0.00  0.00  0.00
  32  31  0.00  1.00  0.00  0.00  0.00 -1.00  1.00  0.00  0.00  0.00  0.00  0.00
  33  34  0.00  0.00 -1.00  1.00  0.00  0.00  0.00  1.00  0.00  0.00  0.00  0.00
  34  33  0.00  1.00  0.00  0.00  0.00  1.00 -1.00  0.00  0.00  0.00  0.00  0.00
  35  36  0.00  0.00  1.00 -1.00  0.00  0.00  0.00  1.00  0.00  0.00  0.00  0.00
  36  35  0.00 -1.00  0.00  0.00  0.00  1.00  1.00  0.00  0.00  0.00  0.00  0.00
  37  37  0.00  1.00  0.00  1.00  0.00  0.00  0.00  0.00  1.00  0.00  0.00  0.00
  38  38  0.00 -1.00  0.00 -1.00  0.00  0.00  0.00  0.00  1.00  0.00  0.00  0.00
  39  40  0.00 -1.00  0.00  1.00  0.00  0.00  0.00  0.00 -1.00  0.00  0.00  0.00
  40  39  0.00  1.00  0.00 -1.00  0.00  0.00  0.00  0.00 -1.00  0.00  0.00  0.00
  41  41  1.00  0.00  0.00  0.00  0.00  1.00  0.00  1.00  0.00  0.00  0.00  0.00
  42  42  0.00  0.00  1.00  0.00  1.00  0.00  1.00  0.00  0.00  0.00  0.00  0.00
  43  45 -1.00  0.00  0.00  0.00  0.00 -1.00  0.00  1.00  0.00  0.00  0.00  0.00
  44  46  0.00  0.00  1.00  0.00 -1.00  0.00 -1.00  0.00  0.00  0.00  0.00  0.00
  45  43 -1.00  0.00  0.00  0.00  0.00  1.00  0.00 -1.00  0.00  0.00  0.00  0.00
  46  44  0.00  0.00 -1.00  0.00 -1.00  0.00  1.00  0.00  0.00  0.00  0.00  0.00
  47  47  1.00  0.00  0.00  0.00  0.00 -1.00  0.00 -1.00  0.00  0.00  0.00  0.00
  48  48  0.00  0.00 -1.00  0.00  1.00  0.00 -1.00  0.00  0.00  0.00  0.00  0.00

 DIRECT LATTICE VECTORS CARTESIAN COMPONENTS (ANGSTROM)
          X                    Y                    Z
   0.426844350000E+01   0.000000000000E+00   0.000000000000E+00
   0.000000000000E+00   0.426844350000E+01   0.000000000000E+00
   0.000000000000E+00   0.000000000000E+00   0.426844350000E+01


 CARTESIAN COORDINATES - PRIMITIVE CELL
 *******************************************************************************
 *      ATOM          X(ANGSTROM)         Y(ANGSTROM)         Z(ANGSTROM)
 *******************************************************************************
    1    12 MG   -9.477848506023E-16 -9.477848506023E-16 -9.477848506023E-16
    2    12 MG    2.134221750000E+00  2.134221750000E+00 -9.477848506023E-16
    3    12 MG    2.134221750000E+00 -9.477848506023E-16  2.134221750000E+00
    4    12 MG    0.000000000000E+00  2.134221750000E+00  2.134221750000E+00
    5     8 O    -9.477848506023E-16 -9.477848506023E-16  2.134221750000E+00
    6     8 O     2.134221750000E+00  2.134221750000E+00  2.134221750000E+00
    7     8 O     2.134221750000E+00 -9.477848506023E-16  4.738924253012E-16
    8     8 O     0.000000000000E+00  2.134221750000E+00  4.738924253012E-16

 *******************************************************************************
 STARTING BASIS SET HANDLING 
 *******************************************************************************

 Loading internal basis set: POB-DZVP-REV2       

 Please cite in your publication:
 D. Vilela Oliveira, M. F. Peintinger, J. Laun, and T. Bredow, J. Comput. Chem.,
  40 (2019)                                                                     
                                                                                
                    

 *******************************************************************************
 LOCAL ATOMIC FUNCTIONS BASIS SET
 *******************************************************************************
   ATOM   X(AU)   Y(AU)   Z(AU)  N. TYPE  EXPONENT  S COEF   P COEF   D/F/G COEF
 *******************************************************************************
   1 MG  -0.000  -0.000  -0.000
                                  1 S  
                                         4.954E+03-5.778E-03 0.000E+00 0.000E+00
                                         7.452E+02-4.312E-02 0.000E+00 0.000E+00
                                         1.692E+02-1.927E-01 0.000E+00 0.000E+00
                                         4.730E+01-4.864E-01 0.000E+00 0.000E+00
                                         1.446E+01-4.255E-01 0.000E+00 0.000E+00
                                  2 S  
                                         2.477E+01 8.796E-02 0.000E+00 0.000E+00
                                         2.494E+00-5.517E-01 0.000E+00 0.000E+00
                                         8.781E-01-5.344E-01 0.000E+00 0.000E+00
                                  3 S  
                                         3.451E-01 1.000E+00 0.000E+00 0.000E+00
                                  4 S  
                                         1.501E-01 1.000E+00 0.000E+00 0.000E+00
                           5-     7 P  
                                         9.805E+01 0.000E+00-1.448E-02 0.000E+00
                                         2.259E+01 0.000E+00-9.550E-02 0.000E+00
                                         6.839E+00 0.000E+00-3.079E-01 0.000E+00
                                         2.233E+00 0.000E+00-4.994E-01 0.000E+00
                                         7.161E-01 0.000E+00-3.150E-01 0.000E+00
                           8-    10 P  
                                         2.469E-01 0.000E+00 1.000E+00 0.000E+00
                          11-    15 D  
                                         4.148E-01 0.000E+00 0.000E+00 1.000E+00
   2 MG   4.033   4.033  -0.000
   3 MG   4.033  -0.000   4.033
   4 MG   0.000   4.033   4.033
   5 O   -0.000  -0.000   4.033
                                 61 S  
                                         2.266E+03-5.343E-03 0.000E+00 0.000E+00
                                         3.409E+02-3.989E-02 0.000E+00 0.000E+00
                                         7.736E+01-1.785E-01 0.000E+00 0.000E+00
                                         2.148E+01-4.643E-01 0.000E+00 0.000E+00
                                         6.659E+00-4.431E-01 0.000E+00 0.000E+00
                                 62 S  
                                         8.479E-01 1.000E+00 0.000E+00 0.000E+00
                                 63 S  
                                         2.791E-01 1.000E+00 0.000E+00 0.000E+00
                          64-    66 P  
                                         1.772E+01 0.000E+00 4.339E-02 0.000E+00
                                         3.864E+00 0.000E+00 2.309E-01 0.000E+00
                                         1.048E+00 0.000E+00 5.138E-01 0.000E+00
                          67-    69 P  
                                         2.624E-01 0.000E+00 1.000E+00 0.000E+00
                          70-    74 D  
                                         4.790E-01 0.000E+00 0.000E+00 1.000E+00
   6 O    4.033   4.033   4.033
   7 O    4.033  -0.000   0.000
   8 O    0.000   4.033   0.000

 *******************************************************************************
 FINISHED BASIS SET HANDLING 
 *******************************************************************************

 INFORMATION **** SET_MPP **** PCRYSTAL CALCULATION
 INFORMATION **** READM2 **** NEW DEFAULT: FOCK/KS MATRIX MIXING SET TO 30 %
 INFORMATION **** READM2 **** NEW DEFAULT: FULL DIRECT SCF MODE
 INFORMATION **** READM2 **** NEW DEFAULT: COULOMB BIPOLAR BUFFER SET TO 32 Mb
 INFORMATION **** READM2 **** NEW DEFAULT: EXCHANGE BIPOLAR BUFFER SET TO 32 Mb

 *******************************************************************************
 NEW DEFAULT: DFT INTEGRATION GRID INCREASED TO XLGRID
 NEW DEFAULT: DIIS ACCELERATOR ACTIVE
 USE KEYWORD NODIIS TO TURN IT OFF
 *******************************************************************************

 INFORMATION **** TOLINTEG **** COULOMB AND EXCHANGE SERIES TOLERANCES MODIFIED
 INFORMATION **** TOLDEE **** SCF TOL ON TOTAL ENERGY SET TO          10
 *******************************************************************************
 N. OF ATOMS PER CELL         8  COULOMB OVERLAP TOL         (T1) 10**   -8
 NUMBER OF SHELLS            52  COULOMB PENETRATION TOL     (T2) 10**   -8
 NUMBER OF AO               116  EXCHANGE OVERLAP TOL        (T3) 10**   20
 N. OF ELECTRONS PER CELL    80  EXCHANGE PSEUDO OVP (F(G))  (T4) 10**   20
 CORE ELECTRONS PER CELL     48  EXCHANGE PSEUDO OVP (P(G))  (T5) 10**   20
 N. OF SYMMETRY OPERATORS    48  POLE ORDER IN MONO ZONE                  4
 *******************************************************************************
 TYPE OF CALCULATION :  RESTRICTED CLOSED SHELL
 KOHN-SHAM HAMILTONIAN

 (EXCHANGE)[CORRELATION] FUNCTIONAL:(PERDEW-BURKE-ERNZERHOF)[PERDEW-BURKE-ERNZERHOF]


 CAPPA:IS1  8;IS2  8;IS3  8; K PTS MONK NET  35; SYMMOPS:K SPACE  48;G SPACE  48

 *******************************************************************************
 MAX NUMBER OF SCF CYCLES      50  CONVERGENCE ON DELTAP        10**-20
 WEIGHT OF F(I) IN F(I+1)      30% CONVERGENCE ON ENERGY        10**-10
 SHRINK. FACT.(MONKH.)    8  8  8  NUMBER OF K POINTS IN THE IBZ     35
 SHRINKING FACTOR(GILAT NET)    8  NUMBER OF K POINTS(GILAT NET)     35
 *******************************************************************************
 *** K POINTS COORDINATES (OBLIQUE COORDINATES IN UNITS OF IS =  8)
   1-R(  0  0  0)   2-C(  1  0  0)   3-C(  2  0  0)   4-C(  3  0  0)
   5-R(  4  0  0)   6-C(  1  1  0)   7-C(  2  1  0)   8-C(  3  1  0)
   9-C(  4  1  0)  10-C(  2  2  0)  11-C(  3  2  0)  12-C(  4  2  0)
  13-C(  3  3  0)  14-C(  4  3  0)  15-R(  4  4  0)  16-C(  1  1  1)
  17-C(  2  1  1)  18-C(  3  1  1)  19-C(  4  1  1)  20-C(  2  2  1)
  21-C(  3  2  1)  22-C(  4  2  1)  23-C(  3  3  1)  24-C(  4  3  1)
  25-C(  4  4  1)  26-C(  2  2  2)  27-C(  3  2  2)  28-C(  4  2  2)
  29-C(  3  3  2)  30-C(  4  3  2)  31-C(  4  4  2)  32-C(  3  3  3)
  33-C(  4  3  3)  34-C(  4  4  3)  35-R(  4  4  4)

 DIRECT LATTICE VECTORS COMPON. (A.U.)     RECIP. LATTICE VECTORS COMPON. (A.U.) 
        X            Y            Z              X            Y            Z
    8.0661892    0.0000000    0.0000000      0.7789534    0.0000000    0.0000000
    0.0000000    8.0661892    0.0000000      0.0000000    0.7789534    0.0000000
    0.0000000    0.0000000    8.0661892      0.0000000    0.0000000    0.7789534

 DISK SPACE FOR EIGENVECTORS (FTN 10)      888096 REALS

 SYMMETRY ADAPTION OF THE BLOCH FUNCTIONS ENABLED
 TTTTTTTTTTTTTTTTTTTTTTTTTTTTTT gordsh1     TELAPSE        0.15 TCPU        0.12

 MATRIX SIZE: P(G)   95932, F(G)   48460, P(G) IRR    3658, F(G) IRR    3658
 MAX G-VECTOR INDEX FOR 1- AND 2-ELECTRON INTEGRALS  81

 TTTTTTTTTTTTTTTTTTTTTTTTTTTTTT INPUT       TELAPSE        0.15 TCPU        0.12

 NEIGHBORS OF THE NON-EQUIVALENT ATOMS

 N = NUMBER OF NEIGHBORS AT DISTANCE R
    ATOM  N     R/ANG      R/AU   NEIGHBORS (ATOM LABELS AND CELL INDICES)
   1 MG   6     2.1342     4.0331    5 O    0 0 0    5 O    0 0-1    7 O    0 0 0
                                     7 O   -1 0 0    8 O    0 0 0    8 O    0-1 0
   1 MG  12     3.0182     5.7037    2 MG   0 0 0    2 MG  -1 0 0    2 MG   0-1 0
                                     2 MG  -1-1 0    3 MG   0 0 0    3 MG   0 0-1
                                     3 MG  -1 0 0    3 MG  -1 0-1    4 MG   0 0 0
                                     4 MG   0-1 0    4 MG   0 0-1    4 MG   0-1-1
   1 MG   8     3.6966     6.9855    6 O    0 0 0    6 O   -1 0 0    6 O    0-1 0
                                     6 O    0 0-1    6 O   -1-1 0    6 O   -1 0-1
                                     6 O    0-1-1    6 O   -1-1-1
   1 MG   6     4.2684     8.0662    1 MG  -1 0 0    1 MG   1 0 0    1 MG   0-1 0
                                     1 MG   0 1 0    1 MG   0 0-1    1 MG   0 0 1
   1 MG  24     4.7723     9.0183    5 O    1 0 0    5 O   -1 0 0    5 O    0 1 0
                                     5 O    0-1 0    5 O   -1 0-1    5 O    1 0-1
                                     5 O    0-1-1    5 O    0 1-1    7 O    0 1 0
                                     7 O    0-1 0    7 O    0 0 1    7 O    0 0-1
                                     7 O   -1-1 0    7 O   -1 1 0    7 O   -1 0-1
                                     7 O   -1 0 1    8 O    0 0 1    8 O    0 0-1
                                     8 O    1 0 0    8 O   -1 0 0    8 O    0-1-1
                                     8 O    0-1 1    8 O   -1-1 0    8 O    1-1 0
   1 MG  24     5.2278     9.8790    2 MG   0 0 1    2 MG   0 0-1    2 MG  -1 0-1
                                     2 MG  -1 0 1    2 MG   0-1-1    2 MG   0-1 1
                                     2 MG  -1-1-1    2 MG  -1-1 1    3 MG   0 1 0
                                     3 MG   0-1 0    3 MG   0-1-1    3 MG   0 1-1
                                     3 MG  -1-1 0    3 MG  -1 1 0    3 MG  -1-1-1
                                     3 MG  -1 1-1    4 MG   1 0 0    4 MG  -1 0 0
                                     4 MG  -1-1 0    4 MG   1-1 0    4 MG  -1 0-1
                                     4 MG   1 0-1    4 MG  -1-1-1    4 MG   1-1-1

   2 MG   6     2.1342     4.0331    6 O    0 0 0    6 O    0 0-1    7 O    0 0 0
                                     7 O    0 1 0    8 O    0 0 0    8 O    1 0 0
   2 MG  12     3.0182     5.7037    1 MG   0 0 0    1 MG   1 0 0    1 MG   0 1 0
                                     1 MG   1 1 0    3 MG   0 0 0    3 MG   0 1 0
                                     3 MG   0 0-1    3 MG   0 1-1    4 MG   0 0 0
                                     4 MG   0 0-1    4 MG   1 0 0    4 MG   1 0-1
   2 MG   8     3.6966     6.9855    5 O    0 0 0    5 O    1 0 0    5 O    0 1 0
                                     5 O    0 0-1    5 O    1 1 0    5 O    1 0-1
                                     5 O    0 1-1    5 O    1 1-1
   2 MG   6     4.2684     8.0662    2 MG  -1 0 0    2 MG   1 0 0    2 MG   0-1 0
                                     2 MG   0 1 0    2 MG   0 0-1    2 MG   0 0 1
   2 MG  24     4.7723     9.0183    6 O    1 0 0    6 O   -1 0 0    6 O    0 1 0
                                     6 O    0-1 0    6 O   -1 0-1    6 O    1 0-1
                                     6 O    0-1-1    6 O    0 1-1    7 O    0 0-1
                                     7 O    0 0 1    7 O   -1 0 0    7 O    1 0 0
                                     7 O    0 1 1    7 O    0 1-1    7 O    1 1 0
                                     7 O   -1 1 0    8 O    0-1 0    8 O    0 1 0
                                     8 O    0 0-1    8 O    0 0 1    8 O    1 1 0
                                     8 O    1-1 0    8 O    1 0 1    8 O    1 0-1
   2 MG  24     5.2278     9.8790    1 MG   0 0-1    1 MG   0 0 1    1 MG   1 0 1
                                     1 MG   1 0-1    1 MG   0 1 1    1 MG   0 1-1
                                     1 MG   1 1 1    1 MG   1 1-1    3 MG   1 0 0
                                     3 MG  -1 0 0    3 MG   1 1 0    3 MG  -1 0-1
                                     3 MG   1 0-1    3 MG  -1 1 0    3 MG   1 1-1
                                     3 MG  -1 1-1    4 MG   0-1 0    4 MG   0 1 0
                                     4 MG   0-1-1    4 MG   1 1 0    4 MG   1-1 0
                                     4 MG   0 1-1    4 MG   1-1-1    4 MG   1 1-1

   5 O    6     2.1342     4.0331    1 MG   0 0 0    1 MG   0 0 1    3 MG   0 0 0
                                     3 MG  -1 0 0    4 MG   0 0 0    4 MG   0-1 0
   5 O   12     3.0182     5.7037    6 O    0 0 0    6 O   -1 0 0    6 O    0-1 0
                                     6 O   -1-1 0    7 O    0 0 0    7 O    0 0 1
                                     7 O   -1 0 0    7 O   -1 0 1    8 O    0 0 0
                                     8 O    0-1 0    8 O    0 0 1    8 O    0-1 1
   5 O    8     3.6966     6.9855    2 MG   0 0 0    2 MG  -1 0 0    2 MG   0-1 0
                                     2 MG   0 0 1    2 MG  -1-1 0    2 MG  -1 0 1
                                     2 MG   0-1 1    2 MG  -1-1 1
   5 O    6     4.2684     8.0662    5 O   -1 0 0    5 O    1 0 0    5 O    0-1 0
                                     5 O    0 1 0    5 O    0 0-1    5 O    0 0 1
   5 O   24     4.7723     9.0183    1 MG  -1 0 0    1 MG   1 0 0    1 MG   0-1 0
                                     1 MG   0 1 0    1 MG   1 0 1    1 MG  -1 0 1
                                     1 MG   0 1 1    1 MG   0-1 1    3 MG   0 1 0
                                     3 MG   0-1 0    3 MG   0 0 1    3 MG   0 0-1
                                     3 MG  -1-1 0    3 MG  -1 1 0    3 MG  -1 0-1
                                     3 MG  -1 0 1    4 MG   0 0 1    4 MG   0 0-1
                                     4 MG   1 0 0    4 MG  -1 0 0    4 MG   0-1-1
                                     4 MG   0-1 1    4 MG  -1-1 0    4 MG   1-1 0
   5 O   24     5.2278     9.8790    6 O    0 0 1    6 O    0 0-1    6 O   -1 0-1
                                     6 O   -1 0 1    6 O    0-1-1    6 O    0-1 1
                                     6 O   -1-1-1    6 O   -1-1 1    7 O    0 1 0
                                     7 O    0-1 0    7 O    0 1 1    7 O   -1-1 0
                                     7 O   -1 1 0    7 O    0-1 1    7 O   -1 1 1
                                     7 O   -1-1 1    8 O   -1 0 0    8 O    1 0 0
                                     8 O   -1-1 0    8 O    1 0 1    8 O   -1 0 1
                                     8 O    1-1 0    8 O   -1-1 1    8 O    1-1 1

   6 O    6     2.1342     4.0331    2 MG   0 0 0    2 MG   0 0 1    3 MG   0 0 0
                                     3 MG   0 1 0    4 MG   0 0 0    4 MG   1 0 0
   6 O   12     3.0182     5.7037    5 O    0 0 0    5 O    1 0 0    5 O    0 1 0
                                     5 O    1 1 0    7 O    0 0 0    7 O    0 1 0
                                     7 O    0 0 1    7 O    0 1 1    8 O    0 0 0
                                     8 O    0 0 1    8 O    1 0 0    8 O    1 0 1
   6 O    8     3.6966     6.9855    1 MG   0 0 0    1 MG   1 0 0    1 MG   0 1 0
                                     1 MG   0 0 1    1 MG   1 1 0    1 MG   1 0 1
                                     1 MG   0 1 1    1 MG   1 1 1
   6 O    6     4.2684     8.0662    6 O   -1 0 0    6 O    1 0 0    6 O    0-1 0
                                     6 O    0 1 0    6 O    0 0-1    6 O    0 0 1
   6 O   24     4.7723     9.0183    2 MG  -1 0 0    2 MG   1 0 0    2 MG   0-1 0
                                     2 MG   0 1 0    2 MG   1 0 1    2 MG  -1 0 1
                                     2 MG   0 1 1    2 MG   0-1 1    3 MG   0 0-1
                                     3 MG   0 0 1    3 MG  -1 0 0    3 MG   1 0 0
                                     3 MG   0 1 1    3 MG   0 1-1    3 MG   1 1 0
                                     3 MG  -1 1 0    4 MG   0-1 0    4 MG   0 1 0
                                     4 MG   0 0-1    4 MG   0 0 1    4 MG   1 1 0
                                     4 MG   1-1 0    4 MG   1 0 1    4 MG   1 0-1
   6 O   24     5.2278     9.8790    5 O    0 0-1    5 O    0 0 1    5 O    1 0 1
                                     5 O    1 0-1    5 O    0 1 1    5 O    0 1-1
                                     5 O    1 1 1    5 O    1 1-1    7 O   -1 0 0
                                     7 O    1 0 0    7 O    1 1 0    7 O   -1 1 0
                                     7 O    1 0 1    7 O   -1 0 1    7 O    1 1 1
                                     7 O   -1 1 1    8 O    0-1 0    8 O    0 1 0
                                     8 O    0 1 1    8 O    0-1 1    8 O    1 1 0
                                     8 O    1-1 0    8 O    1 1 1    8 O    1-1 1


 THERE ARE NO SYMMETRY ALLOWED DIRECTIONS
 TTTTTTTTTTTTTTTTTTTTTTTTTTTTTT SYMM        TELAPSE        0.16 TCPU        0.13
 TTTTTTTTTTTTTTTTTTTTTTTTTTTTTT INT_SCREEN  TELAPSE        0.17 TCPU        0.13

 ************************************************************************
 ************************************************************************
 EOS OPTION, W.F. PERGER, B. CIVALLERI, R. DOVESI, C.M. ZICOVICH, SEPTEMBER 2010
             A. ERBA 2013 
 CONVERGENCE CRITERION FOR ENERGY, TOLDEE =   1.0000E-09
 CONVERGENCE CRITERION FOR RMS GRADIENT, TOLDEG =   3.0000E-04
 CONVERGENCE CRITERION FOR RMS DISPLACEMENT, TOLDEX =  6.2000E-04
 NUMBER OF POINTS (TOTAL) DETERMINING E-V CURVE=     6
 RANGE OF VOLUMES, IN %:     92.0000    108.0000
 ************************************************************************
 ************************************************************************
 TTTTTTTTTTTTTTTTTTTTTTTTTTTTTT gordsh1     TELAPSE        0.17 TCPU        0.13

 MATRIX SIZE: P(G)   95932, F(G)   48460, P(G) IRR    3658, F(G) IRR    3658
 MAX G-VECTOR INDEX FOR 1- AND 2-ELECTRON INTEGRALS  81

 TTTTTTTTTTTTTTTTTTTTTTTTTTTTTT INPUT       TELAPSE        0.17 TCPU        0.13

 NEIGHBORS OF THE NON-EQUIVALENT ATOMS

 N = NUMBER OF NEIGHBORS AT DISTANCE R
    ATOM  N     R/ANG      R/AU   NEIGHBORS (ATOM LABELS AND CELL INDICES)
   1 MG   6     2.1342     4.0331    5 O    0 0 0    5 O    0 0-1    7 O    0 0 0
                                     7 O   -1 0 0    8 O    0 0 0    8 O    0-1 0
   1 MG  12     3.0182     5.7037    2 MG   0 0 0    2 MG  -1 0 0    2 MG   0-1 0
                                     2 MG  -1-1 0    3 MG   0 0 0    3 MG   0 0-1
                                     3 MG  -1 0 0    3 MG  -1 0-1    4 MG   0 0 0
                                     4 MG   0-1 0    4 MG   0 0-1    4 MG   0-1-1
   1 MG   8     3.6966     6.9855    6 O    0 0 0    6 O   -1 0 0    6 O    0-1 0
                                     6 O    0 0-1    6 O   -1-1 0    6 O   -1 0-1
                                     6 O    0-1-1    6 O   -1-1-1
   1 MG   6     4.2684     8.0662    1 MG  -1 0 0    1 MG   1 0 0    1 MG   0-1 0
                                     1 MG   0 1 0    1 MG   0 0-1    1 MG   0 0 1
   1 MG  24     4.7723     9.0183    5 O    1 0 0    5 O   -1 0 0    5 O    0 1 0
                                     5 O    0-1 0    5 O   -1 0-1    5 O    1 0-1
                                     5 O    0-1-1    5 O    0 1-1    7 O    0 1 0
                                     7 O    0-1 0    7 O    0 0 1    7 O    0 0-1
                                     7 O   -1-1 0    7 O   -1 1 0    7 O   -1 0-1
                                     7 O   -1 0 1    8 O    0 0 1    8 O    0 0-1
                                     8 O    1 0 0    8 O   -1 0 0    8 O    0-1-1
                                     8 O    0-1 1    8 O   -1-1 0    8 O    1-1 0
   1 MG  24     5.2278     9.8790    2 MG   0 0 1    2 MG   0 0-1    2 MG  -1 0-1
                                     2 MG  -1 0 1    2 MG   0-1-1    2 MG   0-1 1
                                     2 MG  -1-1-1    2 MG  -1-1 1    3 MG   0 1 0
                                     3 MG   0-1 0    3 MG   0-1-1    3 MG   0 1-1
                                     3 MG  -1-1 0    3 MG  -1 1 0    3 MG  -1-1-1
                                     3 MG  -1 1-1    4 MG   1 0 0    4 MG  -1 0 0
                                     4 MG  -1-1 0    4 MG   1-1 0    4 MG  -1 0-1
                                     4 MG   1 0-1    4 MG  -1-1-1    4 MG   1-1-1

   2 MG   6     2.1342     4.0331    6 O    0 0 0    6 O    0 0-1    7 O    0 0 0
                                     7 O    0 1 0    8 O    0 0 0    8 O    1 0 0
   2 MG  12     3.0182     5.7037    1 MG   0 0 0    1 MG   1 0 0    1 MG   0 1 0
                                     1 MG   1 1 0    3 MG   0 0 0    3 MG   0 1 0
                                     3 MG   0 0-1    3 MG   0 1-1    4 MG   0 0 0
                                     4 MG   0 0-1    4 MG   1 0 0    4 MG   1 0-1
   2 MG   8     3.6966     6.9855    5 O    0 0 0    5 O    1 0 0    5 O    0 1 0
                                     5 O    0 0-1    5 O    1 1 0    5 O    1 0-1
                                     5 O    0 1-1    5 O    1 1-1
   2 MG   6     4.2684     8.0662    2 MG  -1 0 0    2 MG   1 0 0    2 MG   0-1 0
                                     2 MG   0 1 0    2 MG   0 0-1    2 MG   0 0 1
   2 MG  24     4.7723     9.0183    6 O    1 0 0    6 O   -1 0 0    6 O    0 1 0
                                     6 O    0-1 0    6 O   -1 0-1    6 O    1 0-1
                                     6 O    0-1-1    6 O    0 1-1    7 O    0 0-1
                                     7 O    0 0 1    7 O   -1 0 0    7 O    1 0 0
                                     7 O    0 1 1    7 O    0 1-1    7 O    1 1 0
                                     7 O   -1 1 0    8 O    0-1 0    8 O    0 1 0
                                     8 O    0 0-1    8 O    0 0 1    8 O    1 1 0
                                     8 O    1-1 0    8 O    1 0 1    8 O    1 0-1
   2 MG  24     5.2278     9.8790    1 MG   0 0-1    1 MG   0 0 1    1 MG   1 0 1
                                     1 MG   1 0-1    1 MG   0 1 1    1 MG   0 1-1
                                     1 MG   1 1 1    1 MG   1 1-1    3 MG   1 0 0
                                     3 MG  -1 0 0    3 MG   1 1 0    3 MG  -1 0-1
                                     3 MG   1 0-1    3 MG  -1 1 0    3 MG   1 1-1
                                     3 MG  -1 1-1    4 MG   0-1 0    4 MG   0 1 0
                                     4 MG   0-1-1    4 MG   1 1 0    4 MG   1-1 0
                                     4 MG   0 1-1    4 MG   1-1-1    4 MG   1 1-1

   5 O    6     2.1342     4.0331    1 MG   0 0 0    1 MG   0 0 1    3 MG   0 0 0
                                     3 MG  -1 0 0    4 MG   0 0 0    4 MG   0-1 0
   5 O   12     3.0182     5.7037    6 O    0 0 0    6 O   -1 0 0    6 O    0-1 0
                                     6 O   -1-1 0    7 O    0 0 0    7 O    0 0 1
                                     7 O   -1 0 0    7 O   -1 0 1    8 O    0 0 0
                                     8 O    0-1 0    8 O    0 0 1    8 O    0-1 1
   5 O    8     3.6966     6.9855    2 MG   0 0 0    2 MG  -1 0 0    2 MG   0-1 0
                                     2 MG   0 0 1    2 MG  -1-1 0    2 MG  -1 0 1
                                     2 MG   0-1 1    2 MG  -1-1 1
   5 O    6     4.2684     8.0662    5 O   -1 0 0    5 O    1 0 0    5 O    0-1 0
                                     5 O    0 1 0    5 O    0 0-1    5 O    0 0 1
   5 O   24     4.7723     9.0183    1 MG  -1 0 0    1 MG   1 0 0    1 MG   0-1 0
                                     1 MG   0 1 0    1 MG   1 0 1    1 MG  -1 0 1
                                     1 MG   0 1 1    1 MG   0-1 1    3 MG   0 1 0
                                     3 MG   0-1 0    3 MG   0 0 1    3 MG   0 0-1
                                     3 MG  -1-1 0    3 MG  -1 1 0    3 MG  -1 0-1
                                     3 MG  -1 0 1    4 MG   0 0 1    4 MG   0 0-1
                                     4 MG   1 0 0    4 MG  -1 0 0    4 MG   0-1-1
                                     4 MG   0-1 1    4 MG  -1-1 0    4 MG   1-1 0
   5 O   24     5.2278     9.8790    6 O    0 0 1    6 O    0 0-1    6 O   -1 0-1
                                     6 O   -1 0 1    6 O    0-1-1    6 O    0-1 1
                                     6 O   -1-1-1    6 O   -1-1 1    7 O    0 1 0
                                     7 O    0-1 0    7 O    0 1 1    7 O   -1-1 0
                                     7 O   -1 1 0    7 O    0-1 1    7 O   -1 1 1
                                     7 O   -1-1 1    8 O   -1 0 0    8 O    1 0 0
                                     8 O   -1-1 0    8 O    1 0 1    8 O   -1 0 1
                                     8 O    1-1 0    8 O   -1-1 1    8 O    1-1 1

   6 O    6     2.1342     4.0331    2 MG   0 0 0    2 MG   0 0 1    3 MG   0 0 0
                                     3 MG   0 1 0    4 MG   0 0 0    4 MG   1 0 0
   6 O   12     3.0182     5.7037    5 O    0 0 0    5 O    1 0 0    5 O    0 1 0
                                     5 O    1 1 0    7 O    0 0 0    7 O    0 1 0
                                     7 O    0 0 1    7 O    0 1 1    8 O    0 0 0
                                     8 O    0 0 1    8 O    1 0 0    8 O    1 0 1
   6 O    8     3.6966     6.9855    1 MG   0 0 0    1 MG   1 0 0    1 MG   0 1 0
                                     1 MG   0 0 1    1 MG   1 1 0    1 MG   1 0 1
                                     1 MG   0 1 1    1 MG   1 1 1
   6 O    6     4.2684     8.0662    6 O   -1 0 0    6 O    1 0 0    6 O    0-1 0
                                     6 O    0 1 0    6 O    0 0-1    6 O    0 0 1
   6 O   24     4.7723     9.0183    2 MG  -1 0 0    2 MG   1 0 0    2 MG   0-1 0
                                     2 MG   0 1 0    2 MG   1 0 1    2 MG  -1 0 1
                                     2 MG   0 1 1    2 MG   0-1 1    3 MG   0 0-1
                                     3 MG   0 0 1    3 MG  -1 0 0    3 MG   1 0 0
                                     3 MG   0 1 1    3 MG   0 1-1    3 MG   1 1 0
                                     3 MG  -1 1 0    4 MG   0-1 0    4 MG   0 1 0
                                     4 MG   0 0-1    4 MG   0 0 1    4 MG   1 1 0
                                     4 MG   1-1 0    4 MG   1 0 1    4 MG   1 0-1
   6 O   24     5.2278     9.8790    5 O    0 0-1    5 O    0 0 1    5 O    1 0 1
                                     5 O    1 0-1    5 O    0 1 1    5 O    0 1-1
                                     5 O    1 1 1    5 O    1 1-1    7 O   -1 0 0
                                     7 O    1 0 0    7 O    1 1 0    7 O   -1 1 0
                                     7 O    1 0 1    7 O   -1 0 1    7 O    1 1 1
                                     7 O   -1 1 1    8 O    0-1 0    8 O    0 1 0
                                     8 O    0 1 1    8 O    0-1 1    8 O    1 1 0
                                     8 O    1-1 0    8 O    1 1 1    8 O    1-1 1


 SYMMETRY ALLOWED ELASTIC DISTORTION 1
  0.5773503  0.0000000  0.0000000
  0.0000000  0.5773503  0.0000000
  0.0000000  0.0000000  0.5773503

 THERE ARE NO SYMMETRY ALLOWED DIRECTIONS
 WARNING **** INT_SCREEN **** CELL PARAMETERS OPTIMIZATION ONLY
 TTTTTTTTTTTTTTTTTTTTTTTTTTTTTT SYMM        TELAPSE        0.17 TCPU        0.14
 TTTTTTTTTTTTTTTTTTTTTTTTTTTTTT INT_SCREEN  TELAPSE        0.17 TCPU        0.14

 DFT PARAMETERS

     ATOM       ELECTRONS   NET CHARGE   R(ANGSTROM)
   1  12  MG     12.0000      0.0000     1.60000000
   5   8  O       8.0000      0.0000     0.74000000

 SIZE OF GRID=       4403
 TTTTTTTTTTTTTTTTTTTTTTTTTTTTTT MAKE_GRID2  TELAPSE        0.72 TCPU        0.69
 BECKE WEIGHT FUNCTION
 RADSAFE =     2.00
 TOLERANCES - DENSITY:10**- 6; POTENTIAL:10**- 9; GRID WGT:10**-14

 RADIAL INTEGRATION  - INTERVALS (POINTS,UPPER LIMIT):            1( 75,  4.0*R)

 ANGULAR INTEGRATION - INTERVALS (ACCURACY LEVEL [N. POINTS] UPPER LIMIT):
  1(  4[  86]   0.2)  2(  8[ 194]   0.5)  3( 12[ 350]   0.9)  4( 16[ 974]   3.5)
  5( 12[ 350]9999.0)
 TTTTTTTTTTTTTTTTTTTTTTTTTTTTTT INT_CALC    TELAPSE        0.75 TCPU        0.72

 *******************************************************************************
 MgO conventional - PBE/pob-DVZVP-rev2 - QHA                                     
 CRYSTAL - SCF - TYPE OF CALCULATION :  RESTRICTED CLOSED SHELL
 *******************************************************************************

 CAPPA:IS1  8;IS2  8;IS3  8; K PTS MONK NET  35; SYMMOPS:K SPACE  48;G SPACE  48

 TTTTTTTTTTTTTTTTTTTTTTTTTTTTTT SDIK        TELAPSE        0.75 TCPU        0.72

 AAAAAAAAAAAAAAAAAAAAAAAAAAAAAAAAAAAAAAAAAAAAAAAAAAAAAAAAAAAAAAAAAAAAAAAAAAAAAAA
         ATOMIC WAVEFUNCTION(S)


 NUCLEAR CHARGE 12.0  SYMMETRY SPECIES            S    P
 N. ELECTRONS   12.0  NUMBER OF PRIMITIVE GTOS   10    6
                      NUMBER OF CONTRACTED GTOS   4    2
                      NUMBER OF CLOSED SHELLS     3    1
                      OPEN SHELL OCCUPATION       0    0

  ZNUC  SCFIT    TOTAL HF ENERGY   KINETIC ENERGY   VIRIAL THEOREM ACCURACY
  12.0     9    -1.994602712E+02  1.994291603E+02 -2.000155999E+00  2.6E-06

 NUCLEAR CHARGE  8.0  SYMMETRY SPECIES            S    P
 N. ELECTRONS    8.0  NUMBER OF PRIMITIVE GTOS    7    4
                      NUMBER OF CONTRACTED GTOS   3    2
                      NUMBER OF CLOSED SHELLS     2    0
                      OPEN SHELL OCCUPATION       0    4

  ZNUC  SCFIT    TOTAL HF ENERGY   KINETIC ENERGY   VIRIAL THEOREM ACCURACY
   8.0    13    -7.471200414E+01  7.474432650E+01 -1.999567561E+00  2.0E-06

 AAAAAAAAAAAAAAAAAAAAAAAAAAAAAAAAAAAAAAAAAAAAAAAAAAAAAAAAAAAAAAAAAAAAAAAAAAAAAAA

 TTTTTTTTTTTTTTTTTTTTTTTTTTTTTT MOQGAD      TELAPSE        0.76 TCPU        0.73
 TTTTTTTTTTTTTTTTTTTTTTTTTTTTTT SHELLXN     TELAPSE        1.61 TCPU        1.58
 TTTTTTTTTTTTTTTTTTTTTTTTTTTTTT MONMO3      TELAPSE        1.63 TCPU        1.60
 NUMERICALLY INTEGRATED DENSITY     80.0002155112
 TTTTTTTTTTTTTTTTTTTTTTTTTTTTTT NUMDFT      TELAPSE        1.71 TCPU        1.67
 CYC   0 ETOT(AU) -1.100679963431E+03 DETOT -1.10E+03 tst  0.00E+00 PX  1.00E+00
 TTTTTTTTTTTTTTTTTTTTTTTTTTTTTT DIIS        TELAPSE        1.71 TCPU        1.68
 TTTTTTTTTTTTTTTTTTTTTTTTTTTTTT FDIK        TELAPSE        1.75 TCPU        1.72
 INSULATING STATE
 TOP OF VALENCE BANDS -    BAND     40; K    1; EIG -3.3028401E-01 AU
 BOTTOM OF VIRTUAL BANDS - BAND     41; K    1; EIG -8.7639822E-02 AU
 DIRECT ENERGY BAND GAP:   6.6027 eV
 TTTTTTTTTTTTTTTTTTTTTTTTTTTTTT PDIG        TELAPSE        1.79 TCPU        1.76
 TTTTTTTTTTTTTTTTTTTTTTTTTTTTTT MOQGAD      TELAPSE        1.80 TCPU        1.76
 TTTTTTTTTTTTTTTTTTTTTTTTTTTTTT SHELLXN     TELAPSE        2.79 TCPU        2.76
 TTTTTTTTTTTTTTTTTTTTTTTTTTTTTT MONMO3      TELAPSE        2.81 TCPU        2.78
 NUMERICALLY INTEGRATED DENSITY     80.0002130175
 TTTTTTTTTTTTTTTTTTTTTTTTTTTTTT NUMDFT      TELAPSE        2.87 TCPU        2.84
 CYC   1 ETOT(AU) -1.100290303300E+03 DETOT  3.90E-01 tst  0.00E+00 PX  1.00E+00
 TTTTTTTTTTTTTTTTTTTTTTTTTTTTTT DIIS        TELAPSE        2.88 TCPU        2.84
 DIIS TEST: 0.36097E+01 AT SCF   CYCLE   1 - MIX   30 %
 TTTTTTTTTTTTTTTTTTTTTTTTTTTTTT FDIK        TELAPSE        2.89 TCPU        2.86
 INSULATING STATE
 TOP OF VALENCE BANDS -    BAND     40; K    1; EIG -5.1081119E-02 AU
 BOTTOM OF VIRTUAL BANDS - BAND     41; K    1; EIG  6.2328882E-02 AU
 DIRECT ENERGY BAND GAP:   3.0860 eV
 TTTTTTTTTTTTTTTTTTTTTTTTTTTTTT PDIG        TELAPSE        2.93 TCPU        2.90
 TTTTTTTTTTTTTTTTTTTTTTTTTTTTTT MOQGAD      TELAPSE        2.94 TCPU        2.91
 TTTTTTTTTTTTTTTTTTTTTTTTTTTTTT SHELLXN     TELAPSE        3.93 TCPU        3.90
 TTTTTTTTTTTTTTTTTTTTTTTTTTTTTT MONMO3      TELAPSE        3.95 TCPU        3.92
 NUMERICALLY INTEGRATED DENSITY     80.0002806870
 TTTTTTTTTTTTTTTTTTTTTTTTTTTTTT NUMDFT      TELAPSE        4.01 TCPU        3.98
 CYC   2 ETOT(AU) -1.100283558678E+03 DETOT  6.74E-03 tst  2.55E-02 PX  3.72E-01
 TTTTTTTTTTTTTTTTTTTTTTTTTTTTTT DIIS        TELAPSE        4.02 TCPU        3.98
 DIIS TEST: 0.37396E+01 AT SCF   CYCLE   2 - DIIS ACTIVE - HISTORY:     2 CYCLES
 TTTTTTTTTTTTTTTTTTTTTTTTTTTTTT FDIK        TELAPSE        4.03 TCPU        4.00
 INSULATING STATE
 TOP OF VALENCE BANDS -    BAND     40; K    1; EIG -1.5124682E-01 AU
 BOTTOM OF VIRTUAL BANDS - BAND     41; K    1; EIG  2.0247527E-02 AU
 DIRECT ENERGY BAND GAP:   4.6666 eV
 TTTTTTTTTTTTTTTTTTTTTTTTTTTTTT PDIG        TELAPSE        4.07 TCPU        4.04
 TTTTTTTTTTTTTTTTTTTTTTTTTTTTTT MOQGAD      TELAPSE        4.08 TCPU        4.05
 TTTTTTTTTTTTTTTTTTTTTTTTTTTTTT SHELLXN     TELAPSE        5.08 TCPU        5.04
 TTTTTTTTTTTTTTTTTTTTTTTTTTTTTT MONMO3      TELAPSE        5.09 TCPU        5.06
 NUMERICALLY INTEGRATED DENSITY     80.0002475783
 TTTTTTTTTTTTTTTTTTTTTTTTTTTTTT NUMDFT      TELAPSE        5.16 TCPU        5.12
 CYC   3 ETOT(AU) -1.100694190479E+03 DETOT -4.11E-01 tst  5.07E-03 PX  2.26E-01
 TTTTTTTTTTTTTTTTTTTTTTTTTTTTTT DIIS        TELAPSE        5.16 TCPU        5.13
 DIIS TEST: 0.19015E-03 AT SCF   CYCLE   3 - DIIS ACTIVE - HISTORY:     3 CYCLES
 TTTTTTTTTTTTTTTTTTTTTTTTTTTTTT FDIK        TELAPSE        5.18 TCPU        5.14
 INSULATING STATE
 TOP OF VALENCE BANDS -    BAND     40; K    1; EIG -1.5215266E-01 AU
 BOTTOM OF VIRTUAL BANDS - BAND     41; K    1; EIG  1.8767857E-02 AU
 DIRECT ENERGY BAND GAP:   4.6510 eV
 TTTTTTTTTTTTTTTTTTTTTTTTTTTTTT PDIG        TELAPSE        5.22 TCPU        5.18
 TTTTTTTTTTTTTTTTTTTTTTTTTTTTTT MOQGAD      TELAPSE        5.22 TCPU        5.19
 TTTTTTTTTTTTTTTTTTTTTTTTTTTTTT SHELLXN     TELAPSE        6.23 TCPU        6.19
 TTTTTTTTTTTTTTTTTTTTTTTTTTTTTT MONMO3      TELAPSE        6.24 TCPU        6.21
 NUMERICALLY INTEGRATED DENSITY     80.0002472893
 TTTTTTTTTTTTTTTTTTTTTTTTTTTTTT NUMDFT      TELAPSE        6.31 TCPU        6.27
 CYC   4 ETOT(AU) -1.100694237313E+03 DETOT -4.68E-05 tst  1.11E-06 PX  5.06E-03
 TTTTTTTTTTTTTTTTTTTTTTTTTTTTTT DIIS        TELAPSE        6.31 TCPU        6.28
 DIIS TEST: 0.13084E-04 AT SCF   CYCLE   4 - DIIS ACTIVE - HISTORY:     4 CYCLES
 TTTTTTTTTTTTTTTTTTTTTTTTTTTTTT FDIK        TELAPSE        6.33 TCPU        6.29
 INSULATING STATE
 TOP OF VALENCE BANDS -    BAND     40; K    1; EIG -1.5246240E-01 AU
 BOTTOM OF VIRTUAL BANDS - BAND     41; K    1; EIG  1.8287260E-02 AU
 DIRECT ENERGY BAND GAP:   4.6463 eV
 TTTTTTTTTTTTTTTTTTTTTTTTTTTTTT PDIG        TELAPSE        6.37 TCPU        6.33
 TTTTTTTTTTTTTTTTTTTTTTTTTTTTTT MOQGAD      TELAPSE        6.37 TCPU        6.34
 TTTTTTTTTTTTTTTTTTTTTTTTTTTTTT SHELLXN     TELAPSE        7.37 TCPU        7.34
 TTTTTTTTTTTTTTTTTTTTTTTTTTTTTT MONMO3      TELAPSE        7.39 TCPU        7.35
 NUMERICALLY INTEGRATED DENSITY     80.0002472483
 TTTTTTTTTTTTTTTTTTTTTTTTTTTTTT NUMDFT      TELAPSE        7.45 TCPU        7.42
 CYC   5 ETOT(AU) -1.100694240646E+03 DETOT -3.33E-06 tst  7.53E-08 PX  8.30E-04
 TTTTTTTTTTTTTTTTTTTTTTTTTTTTTT DIIS        TELAPSE        7.45 TCPU        7.42
 DIIS TEST: 0.14800E-06 AT SCF   CYCLE   5 - DIIS ACTIVE - HISTORY:     5 CYCLES
 TTTTTTTTTTTTTTTTTTTTTTTTTTTTTT FDIK        TELAPSE        7.47 TCPU        7.44
 INSULATING STATE
 TOP OF VALENCE BANDS -    BAND     40; K    1; EIG -1.5256116E-01 AU
 BOTTOM OF VIRTUAL BANDS - BAND     41; K    1; EIG  1.8198959E-02 AU
 DIRECT ENERGY BAND GAP:   4.6466 eV
 TTTTTTTTTTTTTTTTTTTTTTTTTTTTTT PDIG        TELAPSE        7.51 TCPU        7.48
 TTTTTTTTTTTTTTTTTTTTTTTTTTTTTT MOQGAD      TELAPSE        7.52 TCPU        7.48
 TTTTTTTTTTTTTTTTTTTTTTTTTTTTTT SHELLXN     TELAPSE        8.51 TCPU        8.48
 TTTTTTTTTTTTTTTTTTTTTTTTTTTTTT MONMO3      TELAPSE        8.53 TCPU        8.50
 NUMERICALLY INTEGRATED DENSITY     80.0002472535
 TTTTTTTTTTTTTTTTTTTTTTTTTTTTTT NUMDFT      TELAPSE        8.59 TCPU        8.56
 CYC   6 ETOT(AU) -1.100694240661E+03 DETOT -1.48E-08 tst  5.24E-10 PX  6.55E-05
 TTTTTTTTTTTTTTTTTTTTTTTTTTTTTT DIIS        TELAPSE        8.60 TCPU        8.57
 DIIS TEST: 0.41441E-09 AT SCF   CYCLE   6 - DIIS ACTIVE - HISTORY:     6 CYCLES
 TTTTTTTTTTTTTTTTTTTTTTTTTTTTTT FDIK        TELAPSE        8.62 TCPU        8.58
 INSULATING STATE
 TOP OF VALENCE BANDS -    BAND     40; K    1; EIG -1.5255819E-01 AU
 BOTTOM OF VIRTUAL BANDS - BAND     41; K    1; EIG  1.8201993E-02 AU
 DIRECT ENERGY BAND GAP:   4.6466 eV
 TTTTTTTTTTTTTTTTTTTTTTTTTTTTTT PDIG        TELAPSE        8.66 TCPU        8.62
 TTTTTTTTTTTTTTTTTTTTTTTTTTTTTT MOQGAD      TELAPSE        8.66 TCPU        8.63
 TTTTTTTTTTTTTTTTTTTTTTTTTTTTTT SHELLXN     TELAPSE        9.66 TCPU        9.63
 TTTTTTTTTTTTTTTTTTTTTTTTTTTTTT MONMO3      TELAPSE        9.68 TCPU        9.64
 NUMERICALLY INTEGRATED DENSITY     80.0002472530
 TTTTTTTTTTTTTTTTTTTTTTTTTTTTTT NUMDFT      TELAPSE        9.74 TCPU        9.71
 CYC   7 ETOT(AU) -1.100694240661E+03 DETOT -2.03E-10 tst  1.31E-12 PX  1.99E-06
 TTTTTTTTTTTTTTTTTTTTTTTTTTTTTT DIIS        TELAPSE        9.75 TCPU        9.71
 DIIS TEST: 0.31258E-11 AT SCF   CYCLE   7 - DIIS ACTIVE - HISTORY:     7 CYCLES
 TTTTTTTTTTTTTTTTTTTTTTTTTTTTTT FDIK        TELAPSE        9.76 TCPU        9.73
 INSULATING STATE
 TOP OF VALENCE BANDS -    BAND     40; K    1; EIG -1.5255886E-01 AU
 BOTTOM OF VIRTUAL BANDS - BAND     41; K    1; EIG  1.8201333E-02 AU
 DIRECT ENERGY BAND GAP:   4.6466 eV
 TTTTTTTTTTTTTTTTTTTTTTTTTTTTTT PDIG        TELAPSE        9.80 TCPU        9.77
 TTTTTTTTTTTTTTTTTTTTTTTTTTTTTT MOQGAD      TELAPSE        9.81 TCPU        9.78
 TTTTTTTTTTTTTTTTTTTTTTTTTTTTTT SHELLXN     TELAPSE       10.81 TCPU       10.78
 TTTTTTTTTTTTTTTTTTTTTTTTTTTTTT MONMO3      TELAPSE       10.83 TCPU       10.79
 NUMERICALLY INTEGRATED DENSITY     80.0002472531
 TTTTTTTTTTTTTTTTTTTTTTTTTTTTTT NUMDFT      TELAPSE       10.89 TCPU       10.86
 CYC   8 ETOT(AU) -1.100694240661E+03 DETOT  2.91E-11 tst  8.00E-14 PX  6.34E-07
 TTTTTTTTTTTTTTTTTTTTTTTTTTTTTT DIIS        TELAPSE       10.89 TCPU       10.86
 DIIS TEST: 0.12595E-10 AT SCF   CYCLE   8 - DIIS ACTIVE - HISTORY:     8 CYCLES
 TTTTTTTTTTTTTTTTTTTTTTTTTTTTTT FDIK        TELAPSE       10.91 TCPU       10.88
 INSULATING STATE
 TOP OF VALENCE BANDS -    BAND     40; K    1; EIG -1.5255888E-01 AU
 BOTTOM OF VIRTUAL BANDS - BAND     41; K    1; EIG  1.8201318E-02 AU
 DIRECT ENERGY BAND GAP:   4.6466 eV
 TTTTTTTTTTTTTTTTTTTTTTTTTTTTTT PDIG        TELAPSE       10.95 TCPU       10.92
 TTTTTTTTTTTTTTTTTTTTTTTTTTTTTT MOQGAD      TELAPSE       10.96 TCPU       10.92
 TTTTTTTTTTTTTTTTTTTTTTTTTTTTTT SHELLXN     TELAPSE       11.95 TCPU       11.92
 ::: PSEUDO TOTAL   ENERGY                        -1.0005542564313E+03
 ::: VIRIAL COEFFICIENT                            1.0443052152291E+00
 TTTTTTTTTTTTTTTTTTTTTTTTTTTTTT MONMO3      TELAPSE       11.97 TCPU       11.94
 NUMERICALLY INTEGRATED DENSITY     80.0002472531
 EXCHANGE ENERGY: -0.972130334799E+02  CORRELATION ENERGY: -0.292695074992E+01
 TTTTTTTTTTTTTTTTTTTTTTTTTTTTTT NUMDFT      TELAPSE       12.03 TCPU       12.00
 CYC   9 ETOT(AU) -1.100694240661E+03 DETOT  8.87E-12 tst  4.00E-14 PX  6.34E-07

 == SCF ENDED - CONVERGENCE ON ENERGY      E(AU) -1.1006942406611E+03 CYCLES   9


 ENERGY EXPRESSION=HARTREE+FOCK EXCH*0.00000+(PBE        EXCH)*1.00000+PBE        CORR


 TOTAL ENERGY(DFT)(AU)(  9) -1.1006942406611E+03 DE 8.9E-12 tester 4.0E-14
 TTTTTTTTTTTTTTTTTTTTTTTTTTTTTT EDFT        TELAPSE       12.03 TCPU       12.00

 VOLUME OF PRIMITIVE CELL (A^3)=          77.769375504367
 *******************************************************************************
 LATTICE PARAMETERS (ANGSTROMS AND DEGREES) - BOHR = 0.5291772083 ANGSTROM
 PRIMITIVE CELL - CENTRING CODE 1/0 VOLUME=    77.769376 - DENSITY  3.415 g/cm^3
         A              B              C           ALPHA      BETA       GAMMA 
     4.26844350     4.26844350     4.26844350    90.000000  90.000000  90.000000
 *******************************************************************************
 ATOMS IN THE ASYMMETRIC UNIT    4 - ATOMS IN THE UNIT CELL:    8
     ATOM                 X/A                 Y/B                 Z/C    
 *******************************************************************************
      1 T  12 MG   -2.220446049250E-16 -2.220446049250E-16 -2.220446049250E-16
      2 T  12 MG   -5.000000000000E-01 -5.000000000000E-01 -2.220446049250E-16
      3 F  12 MG   -5.000000000000E-01 -2.220446049250E-16 -5.000000000000E-01
      4 F  12 MG    0.000000000000E+00 -5.000000000000E-01 -5.000000000000E-01
      5 T   8 O    -2.220446049250E-16 -2.220446049250E-16 -5.000000000000E-01
      6 T   8 O    -5.000000000000E-01 -5.000000000000E-01 -5.000000000000E-01
      7 F   8 O    -5.000000000000E-01 -2.220446049250E-16  1.110223024625E-16
      8 F   8 O     0.000000000000E+00 -5.000000000000E-01  1.110223024625E-16

 T = ATOM BELONGING TO THE ASYMMETRIC UNIT
 TTTTTTTTTTTTTTTTTTTTTTTTTTTTTT gordsh1     TELAPSE       12.04 TCPU       12.01

 MATRIX SIZE: P(G)   95932, F(G)   48460, P(G) IRR    3658, F(G) IRR    3658
 MAX G-VECTOR INDEX FOR 1- AND 2-ELECTRON INTEGRALS  81

 TTTTTTTTTTTTTTTTTTTTTTTTTTTTTT INPUT       TELAPSE       12.04 TCPU       12.01

 NEIGHBORS OF THE NON-EQUIVALENT ATOMS

 N = NUMBER OF NEIGHBORS AT DISTANCE R
    ATOM  N     R/ANG      R/AU   NEIGHBORS (ATOM LABELS AND CELL INDICES)
   1 MG   6     2.1342     4.0331    5 O    0 0 0    5 O    0 0-1    7 O    0 0 0
                                     7 O   -1 0 0    8 O    0 0 0    8 O    0-1 0
   1 MG  12     3.0182     5.7037    2 MG   0 0 0    2 MG  -1 0 0    2 MG   0-1 0
                                     2 MG  -1-1 0    3 MG   0 0 0    3 MG   0 0-1
                                     3 MG  -1 0 0    3 MG  -1 0-1    4 MG   0 0 0
                                     4 MG   0-1 0    4 MG   0 0-1    4 MG   0-1-1
   1 MG   8     3.6966     6.9855    6 O    0 0 0    6 O   -1 0 0    6 O    0-1 0
                                     6 O    0 0-1    6 O   -1-1 0    6 O   -1 0-1
                                     6 O    0-1-1    6 O   -1-1-1
   1 MG   6     4.2684     8.0662    1 MG  -1 0 0    1 MG   1 0 0    1 MG   0-1 0
                                     1 MG   0 1 0    1 MG   0 0-1    1 MG   0 0 1
   1 MG  24     4.7723     9.0183    5 O    1 0 0    5 O   -1 0 0    5 O    0 1 0
                                     5 O    0-1 0    5 O   -1 0-1    5 O    1 0-1
                                     5 O    0-1-1    5 O    0 1-1    7 O    0 1 0
                                     7 O    0-1 0    7 O    0 0 1    7 O    0 0-1
                                     7 O   -1-1 0    7 O   -1 1 0    7 O   -1 0-1
                                     7 O   -1 0 1    8 O    0 0 1    8 O    0 0-1
                                     8 O    1 0 0    8 O   -1 0 0    8 O    0-1-1
                                     8 O    0-1 1    8 O   -1-1 0    8 O    1-1 0
   1 MG  24     5.2278     9.8790    2 MG   0 0 1    2 MG   0 0-1    2 MG  -1 0-1
                                     2 MG  -1 0 1    2 MG   0-1-1    2 MG   0-1 1
                                     2 MG  -1-1-1    2 MG  -1-1 1    3 MG   0 1 0
                                     3 MG   0-1 0    3 MG   0-1-1    3 MG   0 1-1
                                     3 MG  -1-1 0    3 MG  -1 1 0    3 MG  -1-1-1
                                     3 MG  -1 1-1    4 MG   1 0 0    4 MG  -1 0 0
                                     4 MG  -1-1 0    4 MG   1-1 0    4 MG  -1 0-1
                                     4 MG   1 0-1    4 MG  -1-1-1    4 MG   1-1-1

   2 MG   6     2.1342     4.0331    6 O    0 0 0    6 O    0 0-1    7 O    0 0 0
                                     7 O    0 1 0    8 O    0 0 0    8 O    1 0 0
   2 MG  12     3.0182     5.7037    1 MG   0 0 0    1 MG   1 0 0    1 MG   0 1 0
                                     1 MG   1 1 0    3 MG   0 0 0    3 MG   0 1 0
                                     3 MG   0 0-1    3 MG   0 1-1    4 MG   0 0 0
                                     4 MG   0 0-1    4 MG   1 0 0    4 MG   1 0-1
   2 MG   8     3.6966     6.9855    5 O    0 0 0    5 O    1 0 0    5 O    0 1 0
                                     5 O    0 0-1    5 O    1 1 0    5 O    1 0-1
                                     5 O    0 1-1    5 O    1 1-1
   2 MG   6     4.2684     8.0662    2 MG  -1 0 0    2 MG   1 0 0    2 MG   0-1 0
                                     2 MG   0 1 0    2 MG   0 0-1    2 MG   0 0 1
   2 MG  24     4.7723     9.0183    6 O    1 0 0    6 O   -1 0 0    6 O    0 1 0
                                     6 O    0-1 0    6 O   -1 0-1    6 O    1 0-1
                                     6 O    0-1-1    6 O    0 1-1    7 O    0 0-1
                                     7 O    0 0 1    7 O   -1 0 0    7 O    1 0 0
                                     7 O    0 1 1    7 O    0 1-1    7 O    1 1 0
                                     7 O   -1 1 0    8 O    0-1 0    8 O    0 1 0
                                     8 O    0 0-1    8 O    0 0 1    8 O    1 1 0
                                     8 O    1-1 0    8 O    1 0 1    8 O    1 0-1
   2 MG  24     5.2278     9.8790    1 MG   0 0-1    1 MG   0 0 1    1 MG   1 0 1
                                     1 MG   1 0-1    1 MG   0 1 1    1 MG   0 1-1
                                     1 MG   1 1 1    1 MG   1 1-1    3 MG   1 0 0
                                     3 MG  -1 0 0    3 MG   1 1 0    3 MG  -1 0-1
                                     3 MG   1 0-1    3 MG  -1 1 0    3 MG   1 1-1
                                     3 MG  -1 1-1    4 MG   0-1 0    4 MG   0 1 0
                                     4 MG   0-1-1    4 MG   1 1 0    4 MG   1-1 0
                                     4 MG   0 1-1    4 MG   1-1-1    4 MG   1 1-1

   5 O    6     2.1342     4.0331    1 MG   0 0 0    1 MG   0 0 1    3 MG   0 0 0
                                     3 MG  -1 0 0    4 MG   0 0 0    4 MG   0-1 0
   5 O   12     3.0182     5.7037    6 O    0 0 0    6 O   -1 0 0    6 O    0-1 0
                                     6 O   -1-1 0    7 O    0 0 0    7 O    0 0 1
                                     7 O   -1 0 0    7 O   -1 0 1    8 O    0 0 0
                                     8 O    0-1 0    8 O    0 0 1    8 O    0-1 1
   5 O    8     3.6966     6.9855    2 MG   0 0 0    2 MG  -1 0 0    2 MG   0-1 0
                                     2 MG   0 0 1    2 MG  -1-1 0    2 MG  -1 0 1
                                     2 MG   0-1 1    2 MG  -1-1 1
   5 O    6     4.2684     8.0662    5 O   -1 0 0    5 O    1 0 0    5 O    0-1 0
                                     5 O    0 1 0    5 O    0 0-1    5 O    0 0 1
   5 O   24     4.7723     9.0183    1 MG  -1 0 0    1 MG   1 0 0    1 MG   0-1 0
                                     1 MG   0 1 0    1 MG   1 0 1    1 MG  -1 0 1
                                     1 MG   0 1 1    1 MG   0-1 1    3 MG   0 1 0
                                     3 MG   0-1 0    3 MG   0 0 1    3 MG   0 0-1
                                     3 MG  -1-1 0    3 MG  -1 1 0    3 MG  -1 0-1
                                     3 MG  -1 0 1    4 MG   0 0 1    4 MG   0 0-1
                                     4 MG   1 0 0    4 MG  -1 0 0    4 MG   0-1-1
                                     4 MG   0-1 1    4 MG  -1-1 0    4 MG   1-1 0
   5 O   24     5.2278     9.8790    6 O    0 0 1    6 O    0 0-1    6 O   -1 0-1
                                     6 O   -1 0 1    6 O    0-1-1    6 O    0-1 1
                                     6 O   -1-1-1    6 O   -1-1 1    7 O    0 1 0
                                     7 O    0-1 0    7 O    0 1 1    7 O   -1-1 0
                                     7 O   -1 1 0    7 O    0-1 1    7 O   -1 1 1
                                     7 O   -1-1 1    8 O   -1 0 0    8 O    1 0 0
                                     8 O   -1-1 0    8 O    1 0 1    8 O   -1 0 1
                                     8 O    1-1 0    8 O   -1-1 1    8 O    1-1 1

   6 O    6     2.1342     4.0331    2 MG   0 0 0    2 MG   0 0 1    3 MG   0 0 0
                                     3 MG   0 1 0    4 MG   0 0 0    4 MG   1 0 0
   6 O   12     3.0182     5.7037    5 O    0 0 0    5 O    1 0 0    5 O    0 1 0
                                     5 O    1 1 0    7 O    0 0 0    7 O    0 1 0
                                     7 O    0 0 1    7 O    0 1 1    8 O    0 0 0
                                     8 O    0 0 1    8 O    1 0 0    8 O    1 0 1
   6 O    8     3.6966     6.9855    1 MG   0 0 0    1 MG   1 0 0    1 MG   0 1 0
                                     1 MG   0 0 1    1 MG   1 1 0    1 MG   1 0 1
                                     1 MG   0 1 1    1 MG   1 1 1
   6 O    6     4.2684     8.0662    6 O   -1 0 0    6 O    1 0 0    6 O    0-1 0
                                     6 O    0 1 0    6 O    0 0-1    6 O    0 0 1
   6 O   24     4.7723     9.0183    2 MG  -1 0 0    2 MG   1 0 0    2 MG   0-1 0
                                     2 MG   0 1 0    2 MG   1 0 1    2 MG  -1 0 1
                                     2 MG   0 1 1    2 MG   0-1 1    3 MG   0 0-1
                                     3 MG   0 0 1    3 MG  -1 0 0    3 MG   1 0 0
                                     3 MG   0 1 1    3 MG   0 1-1    3 MG   1 1 0
                                     3 MG  -1 1 0    4 MG   0-1 0    4 MG   0 1 0
                                     4 MG   0 0-1    4 MG   0 0 1    4 MG   1 1 0
                                     4 MG   1-1 0    4 MG   1 0 1    4 MG   1 0-1
   6 O   24     5.2278     9.8790    5 O    0 0-1    5 O    0 0 1    5 O    1 0 1
                                     5 O    1 0-1    5 O    0 1 1    5 O    0 1-1
                                     5 O    1 1 1    5 O    1 1-1    7 O   -1 0 0
                                     7 O    1 0 0    7 O    1 1 0    7 O   -1 1 0
                                     7 O    1 0 1    7 O   -1 0 1    7 O    1 1 1
                                     7 O   -1 1 1    8 O    0-1 0    8 O    0 1 0
                                     8 O    0 1 1    8 O    0-1 1    8 O    1 1 0
                                     8 O    1-1 0    8 O    1 1 1    8 O    1-1 1


 SYMMETRY ALLOWED ELASTIC DISTORTION 1
  0.5773503  0.0000000  0.0000000
  0.0000000  0.5773503  0.0000000
  0.0000000  0.0000000  0.5773503

 THERE ARE NO SYMMETRY ALLOWED DIRECTIONS
 WARNING **** INT_SCREEN **** CELL PARAMETERS OPTIMIZATION ONLY
 TTTTTTTTTTTTTTTTTTTTTTTTTTTTTT SYMM        TELAPSE       12.04 TCPU       12.01
 TTTTTTTTTTTTTTTTTTTTTTTTTTTTTT INT_SCREEN  TELAPSE       12.04 TCPU       12.01

 *******************************************************************************
 * CELL DEFORMATION
 *******************************************************************************

    ELASTIC STRAIN MATRIX (ADIMENSIONAL)

    1   -0.0101017008    0.0000000000    0.0000000000
    2    0.0000000000   -0.0101017008    0.0000000000
    3    0.0000000000    0.0000000000   -0.0101017008

 LATTICE PARAMETERS (ANGSTROMS AND DEGREES) OF
 (1) ORIGINAL PRIMITIVE CELL
 (2) ORIGINAL CRYSTALLOGRAPHIC CELL
 (3) DEFORMED PRIMITIVE CELL
 (4) DEFORMED CRYSTALLOGRAPHIC CELL

            A           B           C        ALPHA       BETA        GAMMA         VOL
 (2)    4.268443    4.268443    4.268443   90.000000   90.000000   90.000000   77.769376
 (4)    4.225325    4.225325    4.225325   90.000000   90.000000   90.000000   75.436294

 * CELL DEFORMATION COMPLETE - NO. OF SYMMOPS  48
 *******************************************************************************
 LATTICE PARAMETERS (ANGSTROMS AND DEGREES) - BOHR = 0.5291772083 ANGSTROM
 PRIMITIVE CELL - CENTRING CODE 1/0 VOLUME=    75.436294 - DENSITY  3.520 g/cm^3
         A              B              C           ALPHA      BETA       GAMMA 
     4.22532496     4.22532496     4.22532496    90.000000  90.000000  90.000000
 *******************************************************************************
 ATOMS IN THE ASYMMETRIC UNIT    4 - ATOMS IN THE UNIT CELL:    8
     ATOM                 X/A                 Y/B                 Z/C    
 *******************************************************************************
      1 T  12 MG   -2.220446049250E-16 -2.220446049250E-16 -2.220446049250E-16
      2 T  12 MG    5.000000000000E-01 -5.000000000000E-01 -2.220446049250E-16
      3 F  12 MG    5.000000000000E-01 -2.220446049250E-16 -5.000000000000E-01
      4 F  12 MG    0.000000000000E+00 -5.000000000000E-01 -5.000000000000E-01
      5 T   8 O    -2.220446049250E-16 -2.220446049250E-16 -5.000000000000E-01
      6 T   8 O     5.000000000000E-01 -5.000000000000E-01 -5.000000000000E-01
      7 F   8 O     5.000000000000E-01 -2.220446049250E-16  1.110223024625E-16
      8 F   8 O     0.000000000000E+00 -5.000000000000E-01  1.110223024625E-16

 T = ATOM BELONGING TO THE ASYMMETRIC UNIT
 INFORMATION **** CVOLOPT **** CONSTANT VOLUME OPTIMIZATION

 SYMMETRY ALLOWED ELASTIC DISTORTION 1
  0.5773503  0.0000000  0.0000000
  0.0000000  0.5773503  0.0000000
  0.0000000  0.0000000  0.5773503

 THERE ARE NO SYMMETRY ALLOWED DIRECTIONS

 *******************************************************************************
 *                             OPTIMIZATION STARTS                             *
 *******************************************************************************
 RECLASIFICATION OF INDICES FOR INTEGRAL CALC ACCORDING TO DIFFERENT CRITERIA:
           FIXDELTE                  FIXDELTX              FIXDELTN
           0.0000000                0.0000000              *****
 DEFAULT MAX NUM OF POINTS  100
 *******************************************************************************

 *******************************************************************************
 CELL OPTIMIZATION - POINT    1

 DFT PARAMETERS

     ATOM       ELECTRONS   NET CHARGE   R(ANGSTROM)
   1  12  MG     12.0000      0.0000     1.60000000
   5   8  O       8.0000      0.0000     0.74000000

 SIZE OF GRID=       4403
 TTTTTTTTTTTTTTTTTTTTTTTTTTTTTT MAKE_GRID2  TELAPSE       12.87 TCPU       12.84
 BECKE WEIGHT FUNCTION
 RADSAFE =     2.00
 TOLERANCES - DENSITY:10**- 6; POTENTIAL:10**- 9; GRID WGT:10**-14

 RADIAL INTEGRATION  - INTERVALS (POINTS,UPPER LIMIT):            1( 75,  4.0*R)

 ANGULAR INTEGRATION - INTERVALS (ACCURACY LEVEL [N. POINTS] UPPER LIMIT):
  1(  4[  86]   0.2)  2(  8[ 194]   0.5)  3( 12[ 350]   0.9)  4( 16[ 974]   3.5)
  5( 12[ 350]9999.0)

 *******************************************************************************
 MgO conventional - PBE/pob-DVZVP-rev2 - QHA                                     
 CRYSTAL - SCF - TYPE OF CALCULATION :  RESTRICTED CLOSED SHELL
 *******************************************************************************

 CAPPA:IS1  8;IS2  8;IS3  8; K PTS MONK NET  35; SYMMOPS:K SPACE  48;G SPACE  48

 TTTTTTTTTTTTTTTTTTTTTTTTTTTTTT SDIK        TELAPSE       12.91 TCPU       12.87

 INFORMATION FROM INTEGRAL EVALUATION

 RESTART FROM A PREVIOUS DENSITY MATRIX - DEP ACTIVE
 NUMBER OF COUPLE SETS (NEW, OLD, FOUND):     401     401     401
 NUMBER OF IRREDUCIBLE G VECTORS        :     700     700     700

 *******************************************************************************
 LOCAL ATOMIC FUNCTIONS BASIS SET
 *******************************************************************************
   ATOM   X(AU)   Y(AU)   Z(AU)  N. TYPE  EXPONENT  S COEF   P COEF   D/F/G COEF
 *******************************************************************************
   1 MG  -0.000  -0.000  -0.000
                                  1 S  
                                         4.954E+03-5.865E+00 0.000E+00 0.000E+00
                                         7.452E+02-1.057E+01 0.000E+00 0.000E+00
                                         1.692E+02-1.554E+01 0.000E+00 0.000E+00
                                         4.730E+01-1.508E+01 0.000E+00 0.000E+00
                                         1.446E+01-5.425E+00 0.000E+00 0.000E+00
                                  2 S  
                                         2.477E+01 1.676E+00 0.000E+00 0.000E+00
                                         2.494E+00-1.880E+00 0.000E+00 0.000E+00
                                         8.781E-01-8.323E-01 0.000E+00 0.000E+00
                                  3 S  
                                         3.451E-01 7.804E-01 0.000E+00 0.000E+00
                                  4 S  
                                         1.501E-01 4.179E-01 0.000E+00 0.000E+00
                           5-     7 P  
                                         9.805E+01 0.000E+00-1.549E+01 0.000E+00
                                         2.259E+01 0.000E+00-1.630E+01 0.000E+00
                                         6.839E+00 0.000E+00-1.180E+01 0.000E+00
                                         2.233E+00 0.000E+00-4.726E+00 0.000E+00
                                         7.161E-01 0.000E+00-7.194E-01 0.000E+00
                           8-    10 P  
                                         2.469E-01 0.000E+00 6.034E-01 0.000E+00
                          11-    15 D  
                                         4.148E-01 0.000E+00 0.000E+00 8.584E-01
   2 MG   4.033   4.033  -0.000
   3 MG   4.033  -0.000   4.033
   4 MG   0.000   4.033   4.033
   5 O   -0.000  -0.000   4.033
                                 61 S  
                                         2.266E+03-3.068E+00 0.000E+00 0.000E+00
                                         3.409E+02-5.533E+00 0.000E+00 0.000E+00
                                         7.736E+01-8.142E+00 0.000E+00 0.000E+00
                                         2.148E+01-8.099E+00 0.000E+00 0.000E+00
                                         6.659E+00-3.211E+00 0.000E+00 0.000E+00
                                 62 S  
                                         8.479E-01 1.532E+00 0.000E+00 0.000E+00
                                 63 S  
                                         2.791E-01 6.655E-01 0.000E+00 0.000E+00
                          64-    66 P  
                                         1.772E+01 0.000E+00 7.895E+00 0.000E+00
                                         3.864E+00 0.000E+00 6.259E+00 0.000E+00
                                         1.048E+00 0.000E+00 2.726E+00 0.000E+00
                          67-    69 P  
                                         2.624E-01 0.000E+00 6.510E-01 0.000E+00
                          70-    74 D  
                                         4.790E-01 0.000E+00 0.000E+00 1.104E+00
   6 O    4.033   4.033   4.033
   7 O    4.033  -0.000   0.000
   8 O    0.000   4.033   0.000
 TTTTTTTTTTTTTTTTTTTTTTTTTTTTTT MOQGAD      TELAPSE       12.92 TCPU       12.88
 TTTTTTTTTTTTTTTTTTTTTTTTTTTTTT SHELLXN     TELAPSE       13.92 TCPU       13.88
 TTTTTTTTTTTTTTTTTTTTTTTTTTTTTT MONMO3      TELAPSE       13.93 TCPU       13.90
 NUMERICALLY INTEGRATED DENSITY     80.0003317477
 TTTTTTTTTTTTTTTTTTTTTTTTTTTTTT NUMDFT      TELAPSE       14.01 TCPU       13.98
 CYC   0 ETOT(AU) -1.100205661263E+03 DETOT -1.10E+03 tst  4.00E-14 PX  1.00E+00
 TTTTTTTTTTTTTTTTTTTTTTTTTTTTTT DIIS        TELAPSE       14.02 TCPU       13.98
 TTTTTTTTTTTTTTTTTTTTTTTTTTTTTT FDIK        TELAPSE       14.05 TCPU       14.02
 INSULATING STATE
 TOP OF VALENCE BANDS -    BAND     40; K    1; EIG -1.5570638E-01 AU
 BOTTOM OF VIRTUAL BANDS - BAND     41; K    1; EIG  2.7221106E-02 AU
 DIRECT ENERGY BAND GAP:   4.9777 eV
 TTTTTTTTTTTTTTTTTTTTTTTTTTTTTT PDIG        TELAPSE       14.10 TCPU       14.06
 TTTTTTTTTTTTTTTTTTTTTTTTTTTTTT MOQGAD      TELAPSE       14.10 TCPU       14.07
 TTTTTTTTTTTTTTTTTTTTTTTTTTTTTT SHELLXN     TELAPSE       15.10 TCPU       15.06
 TTTTTTTTTTTTTTTTTTTTTTTTTTTTTT MONMO3      TELAPSE       15.11 TCPU       15.08
 NUMERICALLY INTEGRATED DENSITY     80.0003284100
 TTTTTTTTTTTTTTTTTTTTTTTTTTTTTT NUMDFT      TELAPSE       15.18 TCPU       15.14
 CYC   1 ETOT(AU) -1.100695415557E+03 DETOT -4.90E-01 tst  0.00E+00 PX  1.77E-02
 TTTTTTTTTTTTTTTTTTTTTTTTTTTTTT DIIS        TELAPSE       15.18 TCPU       15.15
 DIIS TEST: 0.42885E-02 AT SCF   CYCLE   1 - MIX   30 %
 TTTTTTTTTTTTTTTTTTTTTTTTTTTTTT FDIK        TELAPSE       15.20 TCPU       15.16
 INSULATING STATE
 TOP OF VALENCE BANDS -    BAND     40; K    1; EIG -1.4695198E-01 AU
 BOTTOM OF VIRTUAL BANDS - BAND     41; K    1; EIG  3.2886650E-02 AU
 DIRECT ENERGY BAND GAP:   4.8937 eV
 TTTTTTTTTTTTTTTTTTTTTTTTTTTTTT PDIG        TELAPSE       15.24 TCPU       15.20
 TTTTTTTTTTTTTTTTTTTTTTTTTTTTTT MOQGAD      TELAPSE       15.25 TCPU       15.21
 TTTTTTTTTTTTTTTTTTTTTTTTTTTTTT SHELLXN     TELAPSE       16.24 TCPU       16.21
 TTTTTTTTTTTTTTTTTTTTTTTTTTTTTT MONMO3      TELAPSE       16.26 TCPU       16.22
 NUMERICALLY INTEGRATED DENSITY     80.0003316220
 TTTTTTTTTTTTTTTTTTTTTTTTTTTTTT NUMDFT      TELAPSE       16.32 TCPU       16.29
 CYC   2 ETOT(AU) -1.100695623989E+03 DETOT -2.08E-04 tst  1.68E-05 PX  9.47E-03
 TTTTTTTTTTTTTTTTTTTTTTTTTTTTTT DIIS        TELAPSE       16.32 TCPU       16.29
 DIIS TEST: 0.30114E-02 AT SCF   CYCLE   2 - DIIS ACTIVE - HISTORY:     2 CYCLES
 TTTTTTTTTTTTTTTTTTTTTTTTTTTTTT FDIK        TELAPSE       16.34 TCPU       16.31
 INSULATING STATE
 TOP OF VALENCE BANDS -    BAND     40; K    1; EIG -1.5019026E-01 AU
 BOTTOM OF VIRTUAL BANDS - BAND     41; K    1; EIG  3.1899903E-02 AU
 DIRECT ENERGY BAND GAP:   4.9549 eV
 TTTTTTTTTTTTTTTTTTTTTTTTTTTTTT PDIG        TELAPSE       16.38 TCPU       16.35
 TTTTTTTTTTTTTTTTTTTTTTTTTTTTTT MOQGAD      TELAPSE       16.39 TCPU       16.35
 TTTTTTTTTTTTTTTTTTTTTTTTTTTTTT SHELLXN     TELAPSE       17.39 TCPU       17.35
 TTTTTTTTTTTTTTTTTTTTTTTTTTTTTT MONMO3      TELAPSE       17.40 TCPU       17.37
 NUMERICALLY INTEGRATED DENSITY     80.0003301758
 TTTTTTTTTTTTTTTTTTTTTTTTTTTTTT NUMDFT      TELAPSE       17.46 TCPU       17.43
 CYC   3 ETOT(AU) -1.100695928757E+03 DETOT -3.05E-04 tst  6.55E-06 PX  6.33E-03
 TTTTTTTTTTTTTTTTTTTTTTTTTTTTTT DIIS        TELAPSE       17.47 TCPU       17.44
 DIIS TEST: 0.11147E-03 AT SCF   CYCLE   3 - DIIS ACTIVE - HISTORY:     3 CYCLES
 TTTTTTTTTTTTTTTTTTTTTTTTTTTTTT FDIK        TELAPSE       17.49 TCPU       17.45
 INSULATING STATE
 TOP OF VALENCE BANDS -    BAND     40; K    1; EIG -1.4963851E-01 AU
 BOTTOM OF VIRTUAL BANDS - BAND     41; K    1; EIG  3.2101141E-02 AU
 DIRECT ENERGY BAND GAP:   4.9454 eV
 TTTTTTTTTTTTTTTTTTTTTTTTTTTTTT PDIG        TELAPSE       17.53 TCPU       17.49
 TTTTTTTTTTTTTTTTTTTTTTTTTTTTTT MOQGAD      TELAPSE       17.53 TCPU       17.50
 TTTTTTTTTTTTTTTTTTTTTTTTTTTTTT SHELLXN     TELAPSE       18.53 TCPU       18.50
 TTTTTTTTTTTTTTTTTTTTTTTTTTTTTT MONMO3      TELAPSE       18.55 TCPU       18.51
 NUMERICALLY INTEGRATED DENSITY     80.0003303137
 TTTTTTTTTTTTTTTTTTTTTTTTTTTTTT NUMDFT      TELAPSE       18.61 TCPU       18.57
 CYC   4 ETOT(AU) -1.100695947223E+03 DETOT -1.85E-05 tst  2.02E-07 PX  1.43E-03
 TTTTTTTTTTTTTTTTTTTTTTTTTTTTTT DIIS        TELAPSE       18.61 TCPU       18.58
 DIIS TEST: 0.92478E-07 AT SCF   CYCLE   4 - DIIS ACTIVE - HISTORY:     4 CYCLES
 TTTTTTTTTTTTTTTTTTTTTTTTTTTTTT FDIK        TELAPSE       18.63 TCPU       18.60
 INSULATING STATE
 TOP OF VALENCE BANDS -    BAND     40; K    1; EIG -1.4961669E-01 AU
 BOTTOM OF VIRTUAL BANDS - BAND     41; K    1; EIG  3.2123018E-02 AU
 DIRECT ENERGY BAND GAP:   4.9454 eV
[...]
   234.90      75.554     0.17920E-04   176.159  -0.11006724164E+04  -0.11006515985E+04  -0.11006776028E+04
   240.82      75.562     0.18348E-04   176.024  -0.11006721769E+04  -0.11006513569E+04  -0.11006777385E+04
   246.73      75.571     0.18957E-04   175.880  -0.11006719321E+04  -0.11006511098E+04  -0.11006778806E+04
   252.65      75.579     0.19773E-04   175.734  -0.11006716823E+04  -0.11006508575E+04  -0.11006780287E+04
   258.57      75.588     0.20206E-04   175.587  -0.11006714275E+04  -0.11006506003E+04  -0.11006781828E+04
   264.49      75.597     0.20623E-04   175.438  -0.11006711680E+04  -0.11006503382E+04  -0.11006783429E+04
   270.41      75.607     0.21024E-04   175.288  -0.11006709039E+04  -0.11006500716E+04  -0.11006785089E+04
   276.33      75.616     0.21410E-04   175.136  -0.11006706356E+04  -0.11006498007E+04  -0.11006786809E+04
   282.24      75.626     0.21782E-04   174.983  -0.11006703630E+04  -0.11006495255E+04  -0.11006788589E+04
   288.16      75.636     0.22141E-04   174.829  -0.11006700865E+04  -0.11006492463E+04  -0.11006790426E+04
   294.08      75.646     0.22491E-04   174.674  -0.11006698062E+04  -0.11006489632E+04  -0.11006792322E+04
   300.00      75.656     0.22488E-04   174.518  -0.11006695222E+04  -0.11006486764E+04  -0.11006794275E+04

 *******************************************************************************
 LINEAR THERMAL EXPANSION OF CONVENTIONAL LATTICE PARAMETERS
 *******************************************************************************


    T (K)    a (Ang)    ALPHA_a (1/K)   b (Ang)    ALPHA_b (1/K)   c (Ang)    ALPHA_c (1/K)

    10.00   4.22531307   0.74203E-11   4.22531307   0.74203E-11   4.22531307   0.74203E-11
    15.92   4.22531307   0.83628E-11   4.22531307   0.83628E-11   4.22531307   0.83628E-11
    21.84   4.22531307   0.60802E-11   4.22531307   0.60802E-11   4.22531307   0.60802E-11
    27.76   4.22531307   0.52635E-10   4.22531307   0.52635E-10   4.22531307   0.52635E-10
    33.67   4.22531308   0.84390E-09   4.22531308   0.84390E-09   4.22531308   0.84390E-09
    39.59   4.22531314   0.43313E-08   4.22531314   0.43313E-08   4.22531314   0.43313E-08
    45.51   4.22531335   0.13837E-07   4.22531335   0.13837E-07   4.22531335   0.13837E-07
    51.43   4.22531392   0.33669E-07   4.22531392   0.33669E-07   4.22531392   0.33669E-07
    57.35   4.22531516   0.68512E-07   4.22531516   0.68512E-07   4.22531516   0.68512E-07
    63.27   4.22531750   0.12267E-06   4.22531750   0.12267E-06   4.22531750   0.12267E-06
    69.18   4.22532148   0.19956E-06   4.22532148   0.19956E-06   4.22532148   0.19956E-06
    75.10   4.22532769   0.30144E-06   4.22532769   0.30144E-06   4.22532769   0.30144E-06
    81.02   4.22533677   0.42903E-06   4.22533677   0.42903E-06   4.22533677   0.42903E-06
    86.94   4.22534936   0.58187E-06   4.22534936   0.58187E-06   4.22534936   0.58187E-06
    92.86   4.22536607   0.76683E-06   4.22536607   0.76683E-06   4.22536607   0.76683E-06
    98.78   4.22538746   0.96257E-06   4.22538746   0.96257E-06   4.22538746   0.96257E-06
   104.69   4.22541404   0.11766E-05   4.22541404   0.11766E-05   4.22541404   0.11766E-05
   110.61   4.22544622   0.14058E-05   4.22544622   0.14058E-05   4.22544622   0.14058E-05
   116.53   4.22548434   0.16470E-05   4.22548434   0.16470E-05   4.22548434   0.16470E-05
   122.45   4.22552865   0.18974E-05   4.22552865   0.18974E-05   4.22552865   0.18974E-05
   128.37   4.22557935   0.21539E-05   4.22557935   0.21539E-05   4.22557935   0.21539E-05
   134.29   4.22563656   0.24141E-05   4.22563656   0.24141E-05   4.22563656   0.24141E-05
   140.20   4.22570032   0.26757E-05   4.22570032   0.26757E-05   4.22570032   0.26757E-05
   146.12   4.22577064   0.29367E-05   4.22577064   0.29367E-05   4.22577064   0.29367E-05
   152.04   4.22584748   0.31955E-05   4.22584748   0.31955E-05   4.22584748   0.31955E-05
   157.96   4.22593077   0.34506E-05   4.22593077   0.34506E-05   4.22593077   0.34506E-05
   163.88   4.22602039   0.37010E-05   4.22602039   0.37010E-05   4.22602039   0.37010E-05
   169.80   4.22611621   0.39458E-05   4.22611621   0.39458E-05   4.22611621   0.39458E-05
   175.71   4.22621808   0.41844E-05   4.22621808   0.41844E-05   4.22621808   0.41844E-05
   181.63   4.22632584   0.44162E-05   4.22632584   0.44162E-05   4.22632584   0.44162E-05
   187.55   4.22643931   0.46410E-05   4.22643931   0.46410E-05   4.22643931   0.46410E-05
   193.47   4.22655831   0.48584E-05   4.22655831   0.48584E-05   4.22655831   0.48584E-05
   199.39   4.22668266   0.50683E-05   4.22668266   0.50683E-05   4.22668266   0.50683E-05
   205.31   4.22681216   0.52708E-05   4.22681216   0.52708E-05   4.22681216   0.52708E-05
   211.22   4.22694663   0.54658E-05   4.22694663   0.54658E-05   4.22694663   0.54658E-05
   217.14   4.22708588   0.56535E-05   4.22708588   0.56535E-05   4.22708588   0.56535E-05
   223.06   4.22722974   0.58340E-05   4.22722974   0.58340E-05   4.22722974   0.58340E-05
   228.98   4.22737802   0.58822E-05   4.22737802   0.58822E-05   4.22737802   0.58822E-05
   234.90   4.22753055   0.59733E-05   4.22753055   0.59733E-05   4.22753055   0.59733E-05
   240.82   4.22767107   0.61160E-05   4.22767107   0.61160E-05   4.22767107   0.61160E-05
   246.73   4.22783040   0.63190E-05   4.22783040   0.63190E-05   4.22783040   0.63190E-05
   252.65   4.22799355   0.65907E-05   4.22799355   0.65907E-05   4.22799355   0.65907E-05
   258.57   4.22816039   0.67351E-05   4.22816039   0.67351E-05   4.22816039   0.67351E-05
   264.49   4.22833077   0.68741E-05   4.22833077   0.68741E-05   4.22833077   0.68741E-05
   270.41   4.22850457   0.70079E-05   4.22850457   0.70079E-05   4.22850457   0.70079E-05
   276.33   4.22868165   0.71367E-05   4.22868165   0.71367E-05   4.22868165   0.71367E-05
   282.24   4.22886190   0.72607E-05   4.22886190   0.72607E-05   4.22886190   0.72607E-05
   288.16   4.22904519   0.73802E-05   4.22904519   0.73802E-05   4.22904519   0.73802E-05
   294.08   4.22923143   0.74968E-05   4.22923143   0.74968E-05   4.22923143   0.74968E-05
   300.00   4.22942050   0.74967E-05   4.22942050   0.74967E-05   4.22942050   0.74967E-05
 TTTTTTTTTTTTTTTTTTTTTTTTTTTTTT END         TELAPSE     1321.32 TCPU     1321.21
 EEEEEEEEEE TERMINATION  DATE 12 09 2024 TIME 15:14:47.4
NODE    0 CPU TIME =      1321.213
NODE    1 CPU TIME =      1321.233
NODE    2 CPU TIME =      1321.240
NODE    3 CPU TIME =      1321.236
NODE    4 CPU TIME =      1321.236
NODE    5 CPU TIME =      1321.237
NODE    6 CPU TIME =      1320.885
NODE    7 CPU TIME =      1321.225
NODE    8 CPU TIME =      1321.233
NODE    9 CPU TIME =      1321.231
    TOTAL CPU TIME =     13211.970
Thu 12 Sep 2024 03:14:47 PM CEST
total 316216
-rw-r--r-- 1 erba users         0 Sep 12 14:52 dffit3.dat
-rw-r--r-- 1 erba users         0 Sep 12 14:52 diis_err1.pe00
-rw-r--r-- 1 erba users         0 Sep 12 14:52 diis_err1.pe01
-rw-r--r-- 1 erba users         0 Sep 12 14:52 diis_err1.pe02
-rw-r--r-- 1 erba users        40 Sep 12 15:09 diis_err1.pe03
-rw-r--r-- 1 erba users        40 Sep 12 15:09 diis_err1.pe04
-rw-r--r-- 1 erba users       200 Sep 12 15:14 diis_err1.pe05
-rw-r--r-- 1 erba users      1480 Sep 12 15:14 diis_err1.pe06
-rw-r--r-- 1 erba users     14480 Sep 12 15:14 diis_err1.pe07
-rw-r--r-- 1 erba users     23080 Sep 12 15:14 diis_err1.pe08
-rw-r--r-- 1 erba users     67280 Sep 12 15:14 diis_err1.pe09
-rw-r--r-- 1 erba users         0 Sep 12 14:52 diis_err2.pe00
-rw-r--r-- 1 erba users         0 Sep 12 14:52 diis_err2.pe01
-rw-r--r-- 1 erba users         0 Sep 12 14:52 diis_err2.pe02
-rw-r--r-- 1 erba users        40 Sep 12 15:09 diis_err2.pe03
-rw-r--r-- 1 erba users        40 Sep 12 15:09 diis_err2.pe04
-rw-r--r-- 1 erba users       160 Sep 12 15:14 diis_err2.pe05
-rw-r--r-- 1 erba users      1184 Sep 12 15:14 diis_err2.pe06
-rw-r--r-- 1 erba users     11584 Sep 12 15:14 diis_err2.pe07
-rw-r--r-- 1 erba users     18464 Sep 12 15:14 diis_err2.pe08
-rw-r--r-- 1 erba users     53824 Sep 12 15:14 diis_err2.pe09
-rw-r--r-- 1 erba users    614592 Sep 12 15:14 diis_Fg
-rw-r--r-- 1 erba users         0 Sep 12 14:52 diis_Sk.pe00
-rw-r--r-- 1 erba users         0 Sep 12 14:52 diis_Sk.pe01
-rw-r--r-- 1 erba users         0 Sep 12 14:52 diis_Sk.pe02
-rw-r--r-- 1 erba users         0 Sep 12 14:52 diis_Sk.pe03
-rw-r--r-- 1 erba users         0 Sep 12 14:52 diis_Sk.pe04
-rw-r--r-- 1 erba users         0 Sep 12 14:52 diis_Sk.pe05
-rw-r--r-- 1 erba users         0 Sep 12 14:52 diis_Sk.pe06
-rw-r--r-- 1 erba users         0 Sep 12 14:52 diis_Sk.pe07
-rw-r--r-- 1 erba users         0 Sep 12 14:52 diis_Sk.pe08
-rw-r--r-- 1 erba users         0 Sep 12 14:52 diis_Sk.pe09
-rw-r--r-- 1 erba users     37844 Sep 12 15:14 EOSINFO.DAT
-rw-r--r-- 1 erba users      4308 Sep 12 15:09 FORCES.DAT
-rw-r--r-- 1 erba users   1159096 Sep 12 15:14 fort.10.pe00
-rw-r--r-- 1 erba users    832344 Sep 12 15:14 fort.10.pe01
-rw-r--r-- 1 erba users   1168472 Sep 12 15:14 fort.10.pe02
-rw-r--r-- 1 erba users    850360 Sep 12 15:14 fort.10.pe03
-rw-r--r-- 1 erba users   1210712 Sep 12 15:14 fort.10.pe04
-rw-r--r-- 1 erba users    603968 Sep 12 15:14 fort.10.pe05
-rw-r--r-- 1 erba users    954848 Sep 12 15:14 fort.10.pe06
-rw-r--r-- 1 erba users    603328 Sep 12 15:14 fort.10.pe07
-rw-r--r-- 1 erba users    972864 Sep 12 15:14 fort.10.pe08
-rw-r--r-- 1 erba users    671744 Sep 12 15:14 fort.10.pe09
-rw-r--r-- 1 erba users    102432 Sep 12 15:14 fort.11.pe00
-rw-r--r-- 1 erba users    102432 Sep 12 15:14 fort.11.pe01
-rw-r--r-- 1 erba users    102432 Sep 12 15:14 fort.11.pe02
-rw-r--r-- 1 erba users    102432 Sep 12 15:14 fort.11.pe03
-rw-r--r-- 1 erba users    102432 Sep 12 15:14 fort.11.pe04
-rw-r--r-- 1 erba users    102432 Sep 12 15:14 fort.11.pe05
-rw-r--r-- 1 erba users    102432 Sep 12 15:14 fort.11.pe06
-rw-r--r-- 1 erba users    102432 Sep 12 15:14 fort.11.pe07
-rw-r--r-- 1 erba users    102432 Sep 12 15:14 fort.11.pe08
-rw-r--r-- 1 erba users    102432 Sep 12 15:14 fort.11.pe09
-rw-r--r-- 1 erba users    187240 Sep 12 15:13 fort.12
-rw-r--r-- 1 erba users    788968 Sep 12 15:09 fort.13
-rw-r--r-- 1 erba users         0 Sep 12 14:52 fort.17.pe01
-rw-r--r-- 1 erba users         0 Sep 12 14:52 fort.17.pe02
-rw-r--r-- 1 erba users         0 Sep 12 14:52 fort.17.pe03
-rw-r--r-- 1 erba users         0 Sep 12 14:52 fort.17.pe04
-rw-r--r-- 1 erba users         0 Sep 12 14:52 fort.17.pe05
-rw-r--r-- 1 erba users         0 Sep 12 14:52 fort.17.pe06
-rw-r--r-- 1 erba users         0 Sep 12 14:52 fort.17.pe07
-rw-r--r-- 1 erba users         0 Sep 12 14:52 fort.17.pe08
-rw-r--r-- 1 erba users         0 Sep 12 14:52 fort.17.pe09
-rw-r--r-- 1 erba users         0 Sep 12 14:52 fort.18.pe00
-rw-r--r-- 1 erba users         0 Sep 12 14:52 fort.18.pe01
-rw-r--r-- 1 erba users         0 Sep 12 14:52 fort.18.pe02
-rw-r--r-- 1 erba users         0 Sep 12 14:52 fort.18.pe03
-rw-r--r-- 1 erba users         0 Sep 12 14:52 fort.18.pe04
-rw-r--r-- 1 erba users         0 Sep 12 14:52 fort.18.pe05
-rw-r--r-- 1 erba users         0 Sep 12 14:52 fort.18.pe06
-rw-r--r-- 1 erba users         0 Sep 12 14:52 fort.18.pe07
-rw-r--r-- 1 erba users         0 Sep 12 14:52 fort.18.pe08
-rw-r--r-- 1 erba users         0 Sep 12 14:52 fort.18.pe09
-rw-r--r-- 1 erba users       672 Sep 12 15:14 fort.19.pe00
-rw-r--r-- 1 erba users         0 Sep 12 14:52 fort.19.pe01
-rw-r--r-- 1 erba users         0 Sep 12 14:52 fort.19.pe02
-rw-r--r-- 1 erba users         0 Sep 12 14:52 fort.19.pe03
-rw-r--r-- 1 erba users         0 Sep 12 14:52 fort.19.pe04
-rw-r--r-- 1 erba users         0 Sep 12 14:52 fort.19.pe05
-rw-r--r-- 1 erba users         0 Sep 12 14:52 fort.19.pe06
-rw-r--r-- 1 erba users         0 Sep 12 14:52 fort.19.pe07
-rw-r--r-- 1 erba users         0 Sep 12 14:52 fort.19.pe08
-rw-r--r-- 1 erba users         0 Sep 12 14:52 fort.19.pe09
-rw-r--r-- 1 erba users         0 Sep 12 14:52 fort.1.pe00
-rw-r--r-- 1 erba users         0 Sep 12 14:52 fort.1.pe01
-rw-r--r-- 1 erba users         0 Sep 12 14:52 fort.1.pe02
-rw-r--r-- 1 erba users         0 Sep 12 14:52 fort.1.pe03
-rw-r--r-- 1 erba users         0 Sep 12 14:52 fort.1.pe04
-rw-r--r-- 1 erba users         0 Sep 12 14:52 fort.1.pe05
-rw-r--r-- 1 erba users         0 Sep 12 14:52 fort.1.pe06
-rw-r--r-- 1 erba users         0 Sep 12 14:52 fort.1.pe07
-rw-r--r-- 1 erba users         0 Sep 12 14:52 fort.1.pe08
-rw-r--r-- 1 erba users         0 Sep 12 14:52 fort.1.pe09
-rw-r--r-- 1 erba users    393612 Sep 12 15:09 fort.20
-rw-r--r-- 1 erba users    104416 Sep 12 15:14 fort.21
-rw-r--r-- 1 erba users         0 Sep 12 14:53 fort.28
-rw-r--r-- 1 erba users         0 Sep 12 14:52 fort.28.pe00
-rw-r--r-- 1 erba users         0 Sep 12 14:52 fort.28.pe01
-rw-r--r-- 1 erba users         0 Sep 12 14:52 fort.28.pe02
-rw-r--r-- 1 erba users         0 Sep 12 14:52 fort.28.pe03
-rw-r--r-- 1 erba users         0 Sep 12 14:52 fort.28.pe04
-rw-r--r-- 1 erba users         0 Sep 12 14:52 fort.28.pe05
-rw-r--r-- 1 erba users         0 Sep 12 14:52 fort.28.pe06
-rw-r--r-- 1 erba users         0 Sep 12 14:52 fort.28.pe07
-rw-r--r-- 1 erba users         0 Sep 12 14:52 fort.28.pe08
-rw-r--r-- 1 erba users         0 Sep 12 14:52 fort.28.pe09
-rw-r--r-- 1 erba users         0 Sep 12 14:53 fort.29
-rw-r--r-- 1 erba users         0 Sep 12 14:52 fort.29.pe00
-rw-r--r-- 1 erba users         0 Sep 12 14:52 fort.29.pe01
-rw-r--r-- 1 erba users         0 Sep 12 14:52 fort.29.pe02
-rw-r--r-- 1 erba users         0 Sep 12 14:52 fort.29.pe03
-rw-r--r-- 1 erba users         0 Sep 12 14:52 fort.29.pe04
-rw-r--r-- 1 erba users         0 Sep 12 14:52 fort.29.pe05
-rw-r--r-- 1 erba users         0 Sep 12 14:52 fort.29.pe06
-rw-r--r-- 1 erba users         0 Sep 12 14:52 fort.29.pe07
-rw-r--r-- 1 erba users         0 Sep 12 14:52 fort.29.pe08
-rw-r--r-- 1 erba users         0 Sep 12 14:52 fort.29.pe09
-rw-r--r-- 1 erba users      5785 Sep 12 15:09 fort.33
-rw-r--r-- 1 erba users     12498 Sep 12 15:09 fort.34
-rw-r--r-- 1 erba users         0 Sep 12 14:52 fort.38.pe00
-rw-r--r-- 1 erba users         0 Sep 12 14:52 fort.38.pe01
-rw-r--r-- 1 erba users         0 Sep 12 14:52 fort.38.pe02
-rw-r--r-- 1 erba users         0 Sep 12 14:52 fort.38.pe03
-rw-r--r-- 1 erba users         0 Sep 12 14:52 fort.38.pe04
-rw-r--r-- 1 erba users         0 Sep 12 14:52 fort.38.pe05
-rw-r--r-- 1 erba users         0 Sep 12 14:52 fort.38.pe06
-rw-r--r-- 1 erba users         0 Sep 12 14:52 fort.38.pe07
-rw-r--r-- 1 erba users         0 Sep 12 14:52 fort.38.pe08
-rw-r--r-- 1 erba users         0 Sep 12 14:52 fort.38.pe09
-rw-r--r-- 1 erba users         0 Sep 12 14:52 fort.3.pe00
-rw-r--r-- 1 erba users         0 Sep 12 14:52 fort.3.pe01
-rw-r--r-- 1 erba users         0 Sep 12 14:52 fort.3.pe02
-rw-r--r-- 1 erba users         0 Sep 12 14:52 fort.3.pe03
-rw-r--r-- 1 erba users         0 Sep 12 14:52 fort.3.pe04
-rw-r--r-- 1 erba users         0 Sep 12 14:52 fort.3.pe05
-rw-r--r-- 1 erba users         0 Sep 12 14:52 fort.3.pe06
-rw-r--r-- 1 erba users         0 Sep 12 14:52 fort.3.pe07
-rw-r--r-- 1 erba users         0 Sep 12 14:52 fort.3.pe08
-rw-r--r-- 1 erba users         0 Sep 12 14:52 fort.3.pe09
-rw-r--r-- 1 erba users         0 Sep 12 14:52 fort.40.pe00
-rw-r--r-- 1 erba users         0 Sep 12 14:52 fort.40.pe01
-rw-r--r-- 1 erba users         0 Sep 12 14:52 fort.40.pe02
-rw-r--r-- 1 erba users         0 Sep 12 14:52 fort.40.pe03
-rw-r--r-- 1 erba users         0 Sep 12 14:52 fort.40.pe04
-rw-r--r-- 1 erba users         0 Sep 12 14:52 fort.40.pe05
-rw-r--r-- 1 erba users         0 Sep 12 14:52 fort.40.pe06
-rw-r--r-- 1 erba users         0 Sep 12 14:52 fort.40.pe07
-rw-r--r-- 1 erba users         0 Sep 12 14:52 fort.40.pe08
-rw-r--r-- 1 erba users         0 Sep 12 14:52 fort.40.pe09
-rw-r--r-- 1 erba users     18864 Sep 12 15:14 fort.61.pe00
-rw-r--r-- 1 erba users     19152 Sep 12 15:14 fort.61.pe01
-rw-r--r-- 1 erba users     19440 Sep 12 15:14 fort.61.pe02
-rw-r--r-- 1 erba users     19440 Sep 12 15:14 fort.61.pe03
-rw-r--r-- 1 erba users     24192 Sep 12 15:14 fort.61.pe04
-rw-r--r-- 1 erba users     21208 Sep 12 15:14 fort.61.pe05
-rw-r--r-- 1 erba users     23704 Sep 12 15:14 fort.61.pe06
-rw-r--r-- 1 erba users     26080 Sep 12 15:14 fort.61.pe07
-rw-r--r-- 1 erba users     26716 Sep 12 15:14 fort.61.pe08
-rw-r--r-- 1 erba users     21340 Sep 12 15:14 fort.61.pe09
-rw-r--r-- 1 erba users     15312 Sep 12 15:14 fort.62.pe00
-rw-r--r-- 1 erba users     23808 Sep 12 15:14 fort.62.pe01
-rw-r--r-- 1 erba users     17056 Sep 12 15:14 fort.62.pe02
-rw-r--r-- 1 erba users     19952 Sep 12 15:14 fort.62.pe03
-rw-r--r-- 1 erba users     14880 Sep 12 15:14 fort.62.pe04
-rw-r--r-- 1 erba users     17424 Sep 12 15:14 fort.62.pe05
-rw-r--r-- 1 erba users     23440 Sep 12 15:14 fort.62.pe06
-rw-r--r-- 1 erba users     16960 Sep 12 15:14 fort.62.pe07
-rw-r--r-- 1 erba users     16752 Sep 12 15:14 fort.62.pe08
-rw-r--r-- 1 erba users     15952 Sep 12 15:14 fort.62.pe09
-rw-r--r-- 1 erba users         0 Sep 12 14:52 fort.82.pe00
-rw-r--r-- 1 erba users         0 Sep 12 14:52 fort.82.pe01
-rw-r--r-- 1 erba users         0 Sep 12 14:52 fort.82.pe02
-rw-r--r-- 1 erba users         0 Sep 12 14:52 fort.82.pe03
-rw-r--r-- 1 erba users         0 Sep 12 14:52 fort.82.pe04
-rw-r--r-- 1 erba users         0 Sep 12 14:52 fort.82.pe05
-rw-r--r-- 1 erba users         0 Sep 12 14:52 fort.82.pe06
-rw-r--r-- 1 erba users         0 Sep 12 14:52 fort.82.pe07
-rw-r--r-- 1 erba users         0 Sep 12 14:52 fort.82.pe08
-rw-r--r-- 1 erba users         0 Sep 12 14:52 fort.82.pe09
-rw-r--r-- 1 erba users         0 Sep 12 14:52 fort.83.pe00
-rw-r--r-- 1 erba users         0 Sep 12 14:52 fort.83.pe01
-rw-r--r-- 1 erba users         0 Sep 12 14:52 fort.83.pe02
-rw-r--r-- 1 erba users         0 Sep 12 14:52 fort.83.pe03
-rw-r--r-- 1 erba users         0 Sep 12 14:52 fort.83.pe04
-rw-r--r-- 1 erba users         0 Sep 12 14:52 fort.83.pe05
-rw-r--r-- 1 erba users         0 Sep 12 14:52 fort.83.pe06
-rw-r--r-- 1 erba users         0 Sep 12 14:52 fort.83.pe07
-rw-r--r-- 1 erba users         0 Sep 12 14:52 fort.83.pe08
-rw-r--r-- 1 erba users         0 Sep 12 14:52 fort.83.pe09
-rw-r--r-- 1 erba users       336 Sep 12 15:14 fort.8.pe00
-rw-r--r-- 1 erba users    832344 Sep 12 15:14 fort.8.pe01
-rw-r--r-- 1 erba users   1168472 Sep 12 15:14 fort.8.pe02
-rw-r--r-- 1 erba users    850360 Sep 12 15:14 fort.8.pe03
-rw-r--r-- 1 erba users   1210712 Sep 12 15:14 fort.8.pe04
-rw-r--r-- 1 erba users    603968 Sep 12 15:14 fort.8.pe05
-rw-r--r-- 1 erba users    954848 Sep 12 15:14 fort.8.pe06
-rw-r--r-- 1 erba users    603328 Sep 12 15:14 fort.8.pe07
-rw-r--r-- 1 erba users    972864 Sep 12 15:14 fort.8.pe08
-rw-r--r-- 1 erba users    671744 Sep 12 15:14 fort.8.pe09
-rw-r--r-- 1 erba users    393612 Sep 12 15:09 fort.9
-rw-r--r-- 1 erba users    114448 Sep 12 15:14 fort.95.pe00
-rw-r--r-- 1 erba users    114448 Sep 12 15:14 fort.95.pe01
-rw-r--r-- 1 erba users    114448 Sep 12 15:14 fort.95.pe02
-rw-r--r-- 1 erba users    114448 Sep 12 15:14 fort.95.pe03
-rw-r--r-- 1 erba users    114448 Sep 12 15:14 fort.95.pe04
-rw-r--r-- 1 erba users    114448 Sep 12 15:14 fort.95.pe05
-rw-r--r-- 1 erba users    114448 Sep 12 15:14 fort.95.pe06
-rw-r--r-- 1 erba users    114448 Sep 12 15:14 fort.95.pe07
-rw-r--r-- 1 erba users    114448 Sep 12 15:14 fort.95.pe08
-rw-r--r-- 1 erba users    114448 Sep 12 15:14 fort.95.pe09
-rw-r--r-- 1 erba users   1002768 Sep 12 15:09 fort.98
-rw-r--r-- 1 erba users    305865 Sep 12 15:14 FREQINFO.DAT
-rw-r--r-- 1 erba users     12240 Sep 12 15:14 HESSFREQ.DAT
-rw-r--r-- 1 erba users       229 Sep 12 14:52 INPUT
-rw-r--r-- 1 erba users         0 Sep 12 14:53 MULLIKEN.DAT
-rw-r--r-- 1 erba users     12498 Sep 12 15:09 optc001
-rwxr-xr-x 1 erba users 300056536 Sep 12 14:52 Pcrystal-475130
lrwxrwxrwx 1 erba users        73 Sep 12 14:52 SCFOUT.LOG -> /home/erba/Mitoli/MSSC2024/QHA/MgO_conventional/MgO_conventional_QHA.out2
