
         
 *******************************************************************************
 *                                                                             *
 *                               CRYSTAL14                                     *
 *                      public : 1.0.2 - Feb 23rd, 2013                        *
 *                       HTTP://WWW.CRYSTAL.UNITO.IT                           *
 *                                                                             *
 *                              MAIN AUTHORS                                   *
 *                                                                             *
 *  R. DOVESI(1,11), V.R. SAUNDERS(2), C. ROETTI(1,11), R. ORLANDO(1,11),      *
 *  C.M. ZICOVICH-WILSON(1,3), F. PASCALE(4), B. CIVALLERI(1,11),              *
 *  K. DOLL(5), N.M. HARRISON(2,6), I. J. BUSH(7), Ph. D'ARCO(8),              *
 *  M. LLUNELL(9), M. CAUSA'(10), Y. NOEL(8)                                   *
 *                                                                             *
 *        CONTRIBUTIONS TO THE CURRENT RELEASE HAVE BEEN GIVEN BY              *
 *                                                                             *
 *  L. MASCHIO(1,11), S. CASASSA(1,11), A. ERBA(1,11), M. FERRABONE(1,11),     *
 *  M. DE LA PIERRE(1,11), M. FERRERO(1,11), V. LACIVITA(1,11),                *
 *  J. BAIMA(1,11), E. ALBANESE(1,11), M.F. PEINTINGER(12), R. BAST(13),       *
 *  M. RERAT(14), B. KIRTMAN(15), R. DEMICHELIS(1,16)                          *
 *                                                                             *
 * (1) THEORETICAL CHEMISTRY GROUP - UNIVERSITA' DI TORINO - TORINO (ITALY)    *
 *     http://www.crystal.unito.it                                             *
 * (2) COMPUTATIONAL SCIENCE & ENGINEERING DEPARTMENT - STFC DARESBURY (UK)    *
 *     http://www.stfc.ac.uk/CSE/randd/cmg/CRYSTAL/25806.aspx                  *
 * (3) UNIVERSIDAD AUTONOMA DEL ESTADO DE MORELOS - CUERNAVACA (MEXICO)        *
 * (4) UNIVERSITE' DE LORRAINE - NANCY (FRANCE)                                *
 * (5) UNIVERSITAET ULM - ULM (GERMANY); (6) IMPERIAL COLLEGE - LONDON (UK)    *
 * (7) NAG - OXFORD (UK); (8) UPMC - SORBONNE UNIVERSITES - PARIS (FRANCE)     *
 * (9) UNIVERSIDAD DE BARCELONA - BARCELONA (SPAIN)                            *
 *(10) UNIVERSITA' DI NAPOLI "FEDERICO II" - NAPOLI (ITALY)                    *
 *(11) NIS - NANOSTRUCTURED INTERFACES AND SURFACES - TORINO (ITALY)           *
 *(12) MPI FUER CHEMISCHE ENERGIEKONVERSION - MUELHEIM AN DER RUHR (GERMANY)   *
 *(13) UNIVERSITY OF STOCKHOLM - STOCKHOLM (SWEDEN)                            *
 *(14) UNIVERSITE' DE PAU ET DES PAYS DE L'ADOUR - PAU (FRANCE)                *
 *(15) UNIVERSITY OF CALIFORNIA SANTA BARBARA - SANTA BARBARA (USA)            *
 *(16) CURTIN UNIVERSITY - PERTH (AUSTRALIA)                                   *
 *                                                                             *
 ********************************************************************************
 EEEEEEEEEE STARTING  DATE 03 12 2014 TIME 12:29:58.5
 KMnF3 FM 4.19 rete k 8 8 8                                                      

 CRYSTAL CALCULATION
 (INPUT ACCORDING TO THE INTERNATIONAL TABLES FOR X-RAY CRYSTALLOGRAPHY)
 CRYSTAL FAMILY                       :  CUBIC       
 CRYSTAL CLASS  (GROTH - 1921)        :  CUBIC HEXAKISOCTAHEDRAL              

 SPACE GROUP (CENTROSYMMETRIC)        :  P M 3 M         

 LATTICE PARAMETERS  (ANGSTROMS AND DEGREES) - CONVENTIONAL CELL
        A           B           C        ALPHA        BETA       GAMMA
     4.19000     4.19000     4.19000    90.00000    90.00000    90.00000


 NUMBER OF IRREDUCIBLE ATOMS IN THE CONVENTIONAL CELL:    3

 INPUT COORDINATES

 ATOM AT. N.              COORDINATES
   1  25     0.000000000000E+00  0.000000000000E+00  0.000000000000E+00
   2   9     5.000000000000E-01  0.000000000000E+00  0.000000000000E+00
   3  19     5.000000000000E-01  5.000000000000E-01  5.000000000000E-01

 *******************************************************************************

 << INFORMATION >>: FROM NOW ON, ALL COORDINATES REFER TO THE PRIMITIVE CELL

 *******************************************************************************

 LATTICE PARAMETERS  (ANGSTROMS AND DEGREES) - PRIMITIVE CELL
       A          B          C         ALPHA     BETA     GAMMA        VOLUME
    4.19000    4.19000    4.19000    90.00000  90.00000  90.00000     73.560059

 COORDINATES OF THE EQUIVALENT ATOMS (FRACTIONAL UNITS)

 N. ATOM EQUIV AT. N.          X                  Y                  Z

   1   1   1   25 MN    0.00000000000E+00  0.00000000000E+00  0.00000000000E+00

   2   2   1    9 F    -5.00000000000E-01  0.00000000000E+00  0.00000000000E+00
   3   2   2    9 F     0.00000000000E+00 -5.00000000000E-01  0.00000000000E+00
   4   2   3    9 F     0.00000000000E+00  0.00000000000E+00 -5.00000000000E-01

   5   3   1   19 K    -5.00000000000E-01 -5.00000000000E-01 -5.00000000000E-01

 NUMBER OF SYMMETRY OPERATORS         :   48
 *******************************************************************************
 * GEOMETRY EDITING - INPUT COORDINATES ARE GIVEN IN ANGSTROM         
 *******************************************************************************

 GEOMETRY NOW FULLY CONSISTENT WITH THE GROUP

 GCALCO - MAX INDICES DIRECT LATTICE VECTOR    14    14    14
 NO.OF VECTORS CREATED 6999 STARS  120 RMAX    94.02048 BOHR

 GEOMETRY FOR WAVE FUNCTION - DIMENSIONALITY OF THE SYSTEM    3
 (NON PERIODIC DIRECTION: LATTICE PARAMETER FORMALLY SET TO 500)
 *******************************************************************************
 LATTICE PARAMETERS (ANGSTROMS AND DEGREES) - BOHR = 0.5291772083 ANGSTROM
 PRIMITIVE CELL - CENTRING CODE 1/0 VOLUME=    73.560059 - DENSITY  3.406 g/cm^3
         A              B              C           ALPHA      BETA       GAMMA 
     4.19000000     4.19000000     4.19000000    90.000000  90.000000  90.000000
 *******************************************************************************
 ATOMS IN THE ASYMMETRIC UNIT    3 - ATOMS IN THE UNIT CELL:    5
     ATOM              X/A                 Y/B                 Z/C    
 *******************************************************************************
   1 T  25 MN    0.000000000000E+00  0.000000000000E+00  0.000000000000E+00
   2 T   9 F    -5.000000000000E-01  0.000000000000E+00  0.000000000000E+00
   3 F   9 F     0.000000000000E+00  5.000000000000E-01  0.000000000000E+00
   4 F   9 F     0.000000000000E+00  0.000000000000E+00  5.000000000000E-01
   5 T  19 K    -5.000000000000E-01  5.000000000000E-01  5.000000000000E-01

 T = ATOM BELONGING TO THE ASYMMETRIC UNIT

 ****   48 SYMMOPS - TRANSLATORS IN FRACTIONAL UNITS
 **** MATRICES AND TRANSLATORS IN THE CRYSTALLOGRAPHIC REFERENCE FRAME
   V INV                    ROTATION MATRICES                   TRANSLATORS
   1   1  1.00  0.00  0.00  0.00  1.00  0.00  0.00  0.00  1.00  0.00  0.00  0.00
   2   2 -1.00  0.00  0.00  0.00 -1.00  0.00  0.00  0.00  1.00  0.00  0.00  0.00
   3   3  1.00  0.00  0.00  0.00 -1.00  0.00  0.00  0.00 -1.00  0.00  0.00  0.00
   4   4 -1.00  0.00  0.00  0.00  1.00  0.00  0.00  0.00 -1.00  0.00  0.00  0.00
   5   6  0.00  0.00  1.00  1.00  0.00  0.00  0.00  1.00  0.00  0.00  0.00  0.00
   6   5  0.00  1.00  0.00  0.00  0.00  1.00  1.00  0.00  0.00  0.00  0.00  0.00
   7   8  0.00  0.00 -1.00 -1.00  0.00  0.00  0.00  1.00  0.00  0.00  0.00  0.00
   8   7  0.00 -1.00  0.00  0.00  0.00  1.00 -1.00  0.00  0.00  0.00  0.00  0.00
   9  10  0.00  0.00  1.00 -1.00  0.00  0.00  0.00 -1.00  0.00  0.00  0.00  0.00
  10   9  0.00 -1.00  0.00  0.00  0.00 -1.00  1.00  0.00  0.00  0.00  0.00  0.00
  11  12  0.00  0.00 -1.00  1.00  0.00  0.00  0.00 -1.00  0.00  0.00  0.00  0.00
  12  11  0.00  1.00  0.00  0.00  0.00 -1.00 -1.00  0.00  0.00  0.00  0.00  0.00
  13  13  0.00 -1.00  0.00 -1.00  0.00  0.00  0.00  0.00 -1.00  0.00  0.00  0.00
  14  14  0.00  1.00  0.00  1.00  0.00  0.00  0.00  0.00 -1.00  0.00  0.00  0.00
  15  16  0.00  1.00  0.00 -1.00  0.00  0.00  0.00  0.00  1.00  0.00  0.00  0.00
  16  15  0.00 -1.00  0.00  1.00  0.00  0.00  0.00  0.00  1.00  0.00  0.00  0.00
  17  17 -1.00  0.00  0.00  0.00  0.00 -1.00  0.00 -1.00  0.00  0.00  0.00  0.00
  18  18  0.00  0.00 -1.00  0.00 -1.00  0.00 -1.00  0.00  0.00  0.00  0.00  0.00
  19  21  1.00  0.00  0.00  0.00  0.00  1.00  0.00 -1.00  0.00  0.00  0.00  0.00
  20  22  0.00  0.00 -1.00  0.00  1.00  0.00  1.00  0.00  0.00  0.00  0.00  0.00
  21  19  1.00  0.00  0.00  0.00  0.00 -1.00  0.00  1.00  0.00  0.00  0.00  0.00
  22  20  0.00  0.00  1.00  0.00  1.00  0.00 -1.00  0.00  0.00  0.00  0.00  0.00
  23  23 -1.00  0.00  0.00  0.00  0.00  1.00  0.00  1.00  0.00  0.00  0.00  0.00
  24  24  0.00  0.00  1.00  0.00 -1.00  0.00  1.00  0.00  0.00  0.00  0.00  0.00
  25  25 -1.00  0.00  0.00  0.00 -1.00  0.00  0.00  0.00 -1.00  0.00  0.00  0.00
  26  26  1.00  0.00  0.00  0.00  1.00  0.00  0.00  0.00 -1.00  0.00  0.00  0.00
  27  27 -1.00  0.00  0.00  0.00  1.00  0.00  0.00  0.00  1.00  0.00  0.00  0.00
  28  28  1.00  0.00  0.00  0.00 -1.00  0.00  0.00  0.00  1.00  0.00  0.00  0.00
  29  30  0.00  0.00 -1.00 -1.00  0.00  0.00  0.00 -1.00  0.00  0.00  0.00  0.00
  30  29  0.00 -1.00  0.00  0.00  0.00 -1.00 -1.00  0.00  0.00  0.00  0.00  0.00
  31  32  0.00  0.00  1.00  1.00  0.00  0.00  0.00 -1.00  0.00  0.00  0.00  0.00
  32  31  0.00  1.00  0.00  0.00  0.00 -1.00  1.00  0.00  0.00  0.00  0.00  0.00
  33  34  0.00  0.00 -1.00  1.00  0.00  0.00  0.00  1.00  0.00  0.00  0.00  0.00
  34  33  0.00  1.00  0.00  0.00  0.00  1.00 -1.00  0.00  0.00  0.00  0.00  0.00
  35  36  0.00  0.00  1.00 -1.00  0.00  0.00  0.00  1.00  0.00  0.00  0.00  0.00
  36  35  0.00 -1.00  0.00  0.00  0.00  1.00  1.00  0.00  0.00  0.00  0.00  0.00
  37  37  0.00  1.00  0.00  1.00  0.00  0.00  0.00  0.00  1.00  0.00  0.00  0.00
  38  38  0.00 -1.00  0.00 -1.00  0.00  0.00  0.00  0.00  1.00  0.00  0.00  0.00
  39  40  0.00 -1.00  0.00  1.00  0.00  0.00  0.00  0.00 -1.00  0.00  0.00  0.00
  40  39  0.00  1.00  0.00 -1.00  0.00  0.00  0.00  0.00 -1.00  0.00  0.00  0.00
  41  41  1.00  0.00  0.00  0.00  0.00  1.00  0.00  1.00  0.00  0.00  0.00  0.00
  42  42  0.00  0.00  1.00  0.00  1.00  0.00  1.00  0.00  0.00  0.00  0.00  0.00
  43  45 -1.00  0.00  0.00  0.00  0.00 -1.00  0.00  1.00  0.00  0.00  0.00  0.00
  44  46  0.00  0.00  1.00  0.00 -1.00  0.00 -1.00  0.00  0.00  0.00  0.00  0.00
  45  43 -1.00  0.00  0.00  0.00  0.00  1.00  0.00 -1.00  0.00  0.00  0.00  0.00
  46  44  0.00  0.00 -1.00  0.00 -1.00  0.00  1.00  0.00  0.00  0.00  0.00  0.00
  47  47  1.00  0.00  0.00  0.00  0.00 -1.00  0.00 -1.00  0.00  0.00  0.00  0.00
  48  48  0.00  0.00 -1.00  0.00  1.00  0.00 -1.00  0.00  0.00  0.00  0.00  0.00

 DIRECT LATTICE VECTORS CARTESIAN COMPONENTS (ANGSTROM)
          X                    Y                    Z
   0.419000000000E+01   0.000000000000E+00   0.000000000000E+00
   0.000000000000E+00   0.419000000000E+01   0.000000000000E+00
   0.000000000000E+00   0.000000000000E+00   0.419000000000E+01


 CARTESIAN COORDINATES - PRIMITIVE CELL
 *******************************************************************************
 *      ATOM          X(ANGSTROM)         Y(ANGSTROM)         Z(ANGSTROM)
 *******************************************************************************
    1    25 MN    0.000000000000E+00  0.000000000000E+00  0.000000000000E+00
    2     9 F     2.095000000000E+00  0.000000000000E+00  0.000000000000E+00
    3     9 F     0.000000000000E+00  2.095000000000E+00  0.000000000000E+00
    4     9 F     0.000000000000E+00  0.000000000000E+00  2.095000000000E+00
    5    19 K     2.095000000000E+00  2.095000000000E+00  2.095000000000E+00

 *******************************************************************************
 LOCAL ATOMIC FUNCTIONS BASIS SET
 *******************************************************************************
   ATOM   X(AU)   Y(AU)   Z(AU)  N. TYPE  EXPONENT  S COEF   P COEF   D/F/G COEF
 *******************************************************************************
   1 MN   0.000   0.000   0.000
                                  1 S  
                                         2.926E+05 2.270E-04 0.000E+00 0.000E+00
                                         4.226E+04 1.900E-03 0.000E+00 0.000E+00
                                         8.947E+03 1.110E-02 0.000E+00 0.000E+00
                                         2.330E+03 5.010E-02 0.000E+00 0.000E+00
                                         7.020E+02 1.705E-01 0.000E+00 0.000E+00
                                         2.429E+02 3.691E-01 0.000E+00 0.000E+00
                                         9.495E+01 4.035E-01 0.000E+00 0.000E+00
                                         3.958E+01 1.437E-01 0.000E+00 0.000E+00
                             2-   5 SP 
                                         7.321E+02-5.300E-03 8.600E-03 0.000E+00
                                         1.756E+02-6.730E-02 6.120E-02 0.000E+00
                                         5.851E+01-1.293E-01 2.135E-01 0.000E+00
                                         2.313E+01 2.535E-01 4.018E-01 0.000E+00
                                         9.754E+00 6.345E-01 4.012E-01 0.000E+00
                                         3.454E+00 2.714E-01 2.222E-01 0.000E+00
                             6-   9 SP 
                                         3.839E+01 1.570E-02-3.110E-02 0.000E+00
                                         1.544E+01-2.535E-01-9.690E-02 0.000E+00
                                         6.178E+00-8.648E-01 2.563E-01 0.000E+00
                                         2.824E+00 9.337E-01 1.655E+00 0.000E+00
                            10-  13 SP 
                                         1.209E+00 1.000E+00 1.000E+00 0.000E+00
                            14-  17 SP 
                                         4.986E-01 1.000E+00 1.000E+00 0.000E+00
                            18-  22 D  
                                         2.259E+01 0.000E+00 0.000E+00 7.080E-02
                                         6.167E+00 0.000E+00 0.000E+00 3.044E-01
                                         2.064E+00 0.000E+00 0.000E+00 5.469E-01
                                         7.401E-01 0.000E+00 0.000E+00 5.102E-01
                            23-  27 D  
                                         2.490E-01 0.000E+00 0.000E+00 1.000E+00
   2 F    3.959   0.000   0.000
                                 28 S  
                                         1.377E+04 8.770E-04 0.000E+00 0.000E+00
                                         1.590E+03 9.150E-03 0.000E+00 0.000E+00
                                         3.265E+02 4.860E-02 0.000E+00 0.000E+00
                                         9.166E+01 1.691E-01 0.000E+00 0.000E+00
                                         3.046E+01 3.708E-01 0.000E+00 0.000E+00
                                         1.150E+01 4.165E-01 0.000E+00 0.000E+00
                                         4.760E+00 1.306E-01 0.000E+00 0.000E+00
                            29-  32 SP 
                                         1.900E+01-1.094E-01 1.244E-01 0.000E+00
                                         4.530E+00-1.289E-01 5.323E-01 0.000E+00
                                         1.387E+00 1.000E+00 1.000E+00 0.000E+00
                            33-  36 SP 
                                         4.400E-01 1.000E+00 1.000E+00 0.000E+00
                            37-  40 SP 
                                         1.790E-01 1.000E+00 1.000E+00 0.000E+00
   3 F    0.000   3.959   0.000
   4 F    0.000   0.000   3.959
   5 K    3.959   3.959   3.959
                                 67 S  
                                         1.725E+05 2.200E-04 0.000E+00 0.000E+00
                                         2.432E+04 1.920E-03 0.000E+00 0.000E+00
                                         5.140E+03 1.109E-02 0.000E+00 0.000E+00
                                         1.344E+03 4.992E-02 0.000E+00 0.000E+00
                                         4.045E+02 1.702E-01 0.000E+00 0.000E+00
                                         1.394E+02 3.679E-01 0.000E+00 0.000E+00
                                         5.439E+01 4.036E-01 0.000E+00 0.000E+00
                                         2.271E+01 1.459E-01 0.000E+00 0.000E+00
                            68-  71 SP 
                                         4.020E+02-6.030E-03 8.410E-03 0.000E+00
                                         9.350E+01-8.050E-02 6.020E-02 0.000E+00
                                         3.075E+01-1.094E-01 2.117E-01 0.000E+00
                                         1.192E+01 2.580E-01 3.726E-01 0.000E+00
                                         5.167E+00 6.840E-01 4.022E-01 0.000E+00
                                         1.582E+00 3.990E-01 1.860E-01 0.000E+00
                            72-  75 SP 
                                         1.735E+01-7.400E-03-3.210E-02 0.000E+00
                                         7.550E+00-1.290E-01-6.200E-02 0.000E+00
                                         2.939E+00-6.834E-01 1.691E-01 0.000E+00
                                         1.190E+00 1.080E+00 1.500E+00 0.000E+00
                                         6.740E-01 1.030E+00 1.060E+00 0.000E+00
                            76-  79 SP 
                                         3.890E-01 1.000E+00 1.000E+00 0.000E+00
                            80-  83 SP 
                                         2.160E-01 1.000E+00 1.000E+00 0.000E+00
 INFORMATION **** SET_MPP **** PCRYSTAL CALCULATION
 INFORMATION **** READM2 **** NEW DEFAULT: FOCK/KS MATRIX MIXING SET TO 30 %
 INFORMATION **** READM2 **** NEW DEFAULT: FULL DIRECT SCF MODE
 INFORMATION **** READM2 **** NEW DEFAULT: COULOMB BIPOLAR BUFFER SET TO 32 Mb
 INFORMATION **** READM2 **** NEW DEFAULT: EXCHANGE BIPOLAR BUFFER SET TO 32 Mb
 INFORMATION **** UHF **** SPIN POLARIZED SOLUTIONS ALLOWED
 INFORMATION **** TOLINTEG **** COULOMB AND EXCHANGE SERIES TOLERANCES MODIFIED
 INFORMATION **** SPINLOCK **** LOCK IN A GIVEN SPIN STATE
 ALPHA-BETA ELECTRONS LOCKED TO   5 FOR  30 SCF CYCLES
 INFORMATION **** LEVSHIFT **** LEVEL SHIFTER ACTIVE
 INFORMATION **** TOLDEE **** SCF TOL ON TOTAL ENERGY SET TO           7
 INFORMATION **** MULPOPAN ****  MULLIKEN POPULATION ANALYSIS AT THE END OF SCF
 *******************************************************************************
 N. OF ATOMS PER CELL         5  COULOMB OVERLAP TOL         (T1) 10**   -7
 NUMBER OF SHELLS            24  COULOMB PENETRATION TOL     (T2) 10**   -7
 NUMBER OF AO                83  EXCHANGE OVERLAP TOL        (T3) 10**   -7
 N. OF ELECTRONS PER CELL    71  EXCHANGE PSEUDO OVP (F(G))  (T4) 10**   -7
 CORE ELECTRONS PER CELL     42  EXCHANGE PSEUDO OVP (P(G))  (T5) 10**  -14
 N. OF SYMMETRY OPERATORS    48  POLE ORDER IN MONO ZONE                  4
 *******************************************************************************
 TYPE OF CALCULATION :  UNRESTRICTED OPEN SHELL
 HARTREE-FOCK HAMILTONIAN
 EIGENVALUE LEVEL SHIFTING OF  0.300 HARTREE
 LOCKING - FERMI ENERGY ALTERED BY LEVEL SHIFTER
 SPIN POLARIZATION - ALPHA-BETA =  5 FOR  30 CYCLES

 CAPPA:IS1  8;IS2  8;IS3  8; K PTS MONK NET  35; SYMMOPS:K SPACE  48;G SPACE  48

 *******************************************************************************
 MAX NUMBER OF SCF CYCLES      50  CONVERGENCE ON DELTAP        10**-17
 WEIGHT OF F(I) IN F(I+1)      30% CONVERGENCE ON ENERGY        10**- 7
 EIGENVALUE LEVEL SHIFTING OF  0.300 HARTREE
 LOCKING - FERMI ENERGY ALTERED BY LEVEL SHIFTER
 SPIN POLARIZATION - ALPHA-BETA =  5 FOR  30 CYCLES
 SHRINK. FACT.(MONKH.)    8  8  8  NUMBER OF K POINTS IN THE IBZ     35
 SHRINKING FACTOR(GILAT NET)    8  NUMBER OF K POINTS(GILAT NET)     35
 *******************************************************************************
 *** K POINTS COORDINATES (OBLIQUE COORDINATES IN UNITS OF IS =  8)
   1-R(  0  0  0)   2-C(  1  0  0)   3-C(  2  0  0)   4-C(  3  0  0)
   5-R(  4  0  0)   6-C(  1  1  0)   7-C(  2  1  0)   8-C(  3  1  0)
   9-C(  4  1  0)  10-C(  2  2  0)  11-C(  3  2  0)  12-C(  4  2  0)
  13-C(  3  3  0)  14-C(  4  3  0)  15-R(  4  4  0)  16-C(  1  1  1)
  17-C(  2  1  1)  18-C(  3  1  1)  19-C(  4  1  1)  20-C(  2  2  1)
  21-C(  3  2  1)  22-C(  4  2  1)  23-C(  3  3  1)  24-C(  4  3  1)
  25-C(  4  4  1)  26-C(  2  2  2)  27-C(  3  2  2)  28-C(  4  2  2)
  29-C(  3  3  2)  30-C(  4  3  2)  31-C(  4  4  2)  32-C(  3  3  3)
  33-C(  4  3  3)  34-C(  4  4  3)  35-R(  4  4  4)

 DIRECT LATTICE VECTORS COMPON. (A.U.)     RECIP. LATTICE VECTORS COMPON. (A.U.) 
        X            Y            Z              X            Y            Z
    7.9179525    0.0000000    0.0000000      0.7935366    0.0000000    0.0000000
    0.0000000    7.9179525    0.0000000      0.0000000    0.7935366    0.0000000
    0.0000000    0.0000000    7.9179525      0.0000000    0.0000000    0.7935366

 DISK SPACE FOR EIGENVECTORS (FTN 10)      454674 REALS

 SYMMETRY ADAPTION OF THE BLOCH FUNCTIONS ENABLED

 MATRIX SIZE: P(G)  109763, F(G)   20528, P(G) IRR    4448, F(G) IRR    2394
 MAX G-VECTOR INDEX FOR 1- AND 2-ELECTRON INTEGRALS 117

 TTTTTTTTTTTTTTTTTTTTTTTTTTTTTT INPUT       TELAPSE        0.20 TCPU        0.01

 NEIGHBORS OF THE NON-EQUIVALENT ATOMS

 N = NUMBER OF NEIGHBORS AT DISTANCE R
    ATOM  N     R/ANG      R/AU   NEIGHBORS (ATOM LABELS AND CELL INDICES)
   1 MN   6     2.0950     3.9590    2 F    0 0 0    2 F   -1 0 0    3 F    0 0 0
                                     3 F    0-1 0    4 F    0 0 0    4 F    0 0-1
   1 MN   8     3.6286     6.8571    5 K    0 0 0    5 K   -1 0 0    5 K    0-1 0
                                     5 K    0 0-1    5 K   -1-1 0    5 K   -1 0-1
                                     5 K    0-1-1    5 K   -1-1-1
   1 MN   6     4.1900     7.9180    1 MN  -1 0 0    1 MN   1 0 0    1 MN   0-1 0
                                     1 MN   0 1 0    1 MN   0 0-1    1 MN   0 0 1
   1 MN  24     4.6846     8.8525    2 F    0 1 0    2 F    0-1 0    2 F    0 0 1
                                     2 F    0 0-1    2 F   -1-1 0    2 F   -1 0-1
                                     2 F   -1 0 1    2 F   -1 1 0    3 F    0 0 1
                                     3 F    0 0-1    3 F    1 0 0    3 F   -1 0 0
                                     3 F    0-1-1    3 F   -1-1 0    3 F    1-1 0
                                     3 F    0-1 1    4 F    1 0 0    4 F   -1 0 0
                                     4 F    0 1 0    4 F    0-1 0    4 F   -1 0-1
                                     4 F    0-1-1    4 F    0 1-1    4 F    1 0-1
   1 MN  12     5.9256    11.1977    1 MN  -1-1 0    1 MN   1 1 0    1 MN  -1 0-1
                                     1 MN   1 0 1    1 MN  -1 0 1    1 MN   1 0-1
                                     1 MN  -1 1 0    1 MN   1-1 0    1 MN   0-1-1
                                     1 MN   0 1 1    1 MN   0-1 1    1 MN   0 1-1
   1 MN  30     6.2850    11.8769    2 F    1 0 0    2 F    0 1 1    2 F    0-1-1
                                     2 F    0 1-1    2 F    0-1 1    2 F   -1-1-1
                                     2 F   -1-1 1    2 F   -1 1-1    2 F   -1 1 1
                                     2 F   -2 0 0    3 F    0 1 0    3 F    1 0 1
                                     3 F   -1 0-1    3 F   -1 0 1    3 F    1 0-1
                                     3 F   -1-1-1    3 F    1-1-1    3 F   -1-1 1
                                     3 F    1-1 1    3 F    0-2 0    4 F    0 0 1
                                     4 F    1 1 0    4 F   -1-1 0    4 F    1-1 0
                                     4 F   -1 1 0    4 F   -1-1-1    4 F   -1 1-1
                                     4 F    1-1-1    4 F    1 1-1    4 F    0 0-2

   2 F    2     2.0950     3.9590    1 MN   0 0 0    1 MN   1 0 0
   2 F    8     2.9628     5.5988    3 F    0 0 0    3 F    1 0 0    3 F    0-1 0
                                     3 F    1-1 0    4 F    0 0 0    4 F    0 0-1
                                     4 F    1 0 0    4 F    1 0-1
   2 F    4     2.9628     5.5988    5 K    0 0 0    5 K    0-1 0    5 K    0 0-1
                                     5 K    0-1-1
   2 F    6     4.1900     7.9180    2 F   -1 0 0    2 F    1 0 0    2 F    0-1 0
                                     2 F    0 1 0    2 F    0 0-1    2 F    0 0 1
   2 F    8     4.6846     8.8525    1 MN   0-1 0    1 MN   0 1 0    1 MN   0 0-1
                                     1 MN   0 0 1    1 MN   1 1 0    1 MN   1 0 1
                                     1 MN   1 0-1    1 MN   1-1 0
   2 F   16     5.1317     9.6975    3 F    0 0 1    3 F    0 0-1    3 F    1 0 1
                                     3 F    1 0-1    3 F    0-1-1    3 F    0-1 1
                                     3 F    1-1 1    3 F    1-1-1    4 F    0-1 0
                                     4 F    0 1 0    4 F    0-1-1    4 F    0 1-1
                                     4 F    1 1 0    4 F    1-1 0    4 F    1-1-1
                                     4 F    1 1-1

   5 K   12     2.9628     5.5988    2 F    0 0 0    2 F    0 1 0    2 F    0 0 1
                                     2 F    0 1 1    3 F    0 0 0    3 F    0 0 1
                                     3 F    1 0 0    3 F    1 0 1    4 F    0 0 0
                                     4 F    1 0 0    4 F    0 1 0    4 F    1 1 0
   5 K    8     3.6286     6.8571    1 MN   0 0 0    1 MN   1 0 0    1 MN   0 1 0
                                     1 MN   0 0 1    1 MN   1 1 0    1 MN   1 0 1
                                     1 MN   0 1 1    1 MN   1 1 1
   5 K    6     4.1900     7.9180    5 K   -1 0 0    5 K    1 0 0    5 K    0-1 0
                                     5 K    0 1 0    5 K    0 0-1    5 K    0 0 1
   5 K   24     5.1317     9.6975    2 F   -1 0 0    2 F    1 0 0    2 F    1 1 0
                                     2 F    1 0 1    2 F   -1 0 1    2 F   -1 1 0
                                     2 F    1 1 1    2 F   -1 1 1    3 F    0-1 0
                                     3 F    0 1 0    3 F    0 1 1    3 F    1 1 0
                                     3 F    1-1 0    3 F    0-1 1    3 F    1 1 1
                                     3 F    1-1 1    4 F    0 0-1    4 F    0 0 1
                                     4 F    1 0 1    4 F    0 1 1    4 F    0 1-1
                                     4 F    1 0-1    4 F    1 1 1    4 F    1 1-1
   5 K   12     5.9256    11.1977    5 K   -1-1 0    5 K    1 1 0    5 K   -1 0-1
                                     5 K    1 0 1    5 K   -1 0 1    5 K    1 0-1
                                     5 K   -1 1 0    5 K    1-1 0    5 K    0-1-1
                                     5 K    0 1 1    5 K    0-1 1    5 K    0 1-1
   5 K   24     6.6250    12.5194    2 F    0-1 0    2 F    0 0-1    2 F    0-1 1
                                     2 F    0 1-1    2 F    0 2 0    2 F    0 0 2
                                     2 F    0 2 1    2 F    0 1 2    3 F    0 0-1
                                     3 F   -1 0 0    3 F    1 0-1    3 F   -1 0 1
                                     3 F    0 0 2    3 F    2 0 0    3 F    1 0 2
                                     3 F    2 0 1    4 F   -1 0 0    4 F    0-1 0
                                     4 F   -1 1 0    4 F    1-1 0    4 F    2 0 0
                                     4 F    0 2 0    4 F    2 1 0    4 F    1 2 0


 THERE ARE NO SYMMETRY ALLOWED DIRECTIONS
 TTTTTTTTTTTTTTTTTTTTTTTTTTTTTT SYMM        TELAPSE        0.23 TCPU        0.01
 TTTTTTTTTTTTTTTTTTTTTTTTTTTTTT INT_SCREEN  TELAPSE        0.25 TCPU        0.02
 INFORMATION **** EXCBUF **** EXCH. BIPO BUFFER: WORDS USED =      375390
 TTTTTTTTTTTTTTTTTTTTTTTTTTTTTT INT_CALC    TELAPSE        0.29 TCPU        0.04
 EEEEEEEEEE INT_CALC TERMINATION  DATE 03 12 2014 TIME 12:29:58.7

 *******************************************************************************
 KMnF3 FM 4.19 rete k 8 8 8                                                      
 CRYSTAL - SCF - TYPE OF CALCULATION :  UNRESTRICTED OPEN SHELL
 *******************************************************************************

 CAPPA:IS1  8;IS2  8;IS3  8; K PTS MONK NET  35; SYMMOPS:K SPACE  48;G SPACE  48

 TTTTTTTTTTTTTTTTTTTTTTTTTTTTTT SDIK        TELAPSE        0.32 TCPU        0.07

 AAAAAAAAAAAAAAAAAAAAAAAAAAAAAAAAAAAAAAAAAAAAAAAAAAAAAAAAAAAAAAAAAAAAAAAAAAAAAAA
         ATOMIC WAVEFUNCTION(S)


 NUCLEAR CHARGE 25.0  SYMMETRY SPECIES            S    P    D
 N. ELECTRONS   23.0  NUMBER OF PRIMITIVE GTOS   20   12    5
                      NUMBER OF CONTRACTED GTOS   5    4    2
                      NUMBER OF CLOSED SHELLS     3    2    0
                      OPEN SHELL OCCUPATION       0    0    5

  ZNUC SCFIT  TOTAL HF ENERGY   KINETIC ENERGY   VIRIAL THEOREM ACCURACY
  25.0  25   -1.149037824E+03  1.148794997E+03 -2.000211375E+00  4.6E-06

 NUCLEAR CHARGE  9.0  SYMMETRY SPECIES            S    P
 N. ELECTRONS   10.0  NUMBER OF PRIMITIVE GTOS   12    5
                      NUMBER OF CONTRACTED GTOS   4    3
                      NUMBER OF CLOSED SHELLS     2    1
                      OPEN SHELL OCCUPATION       0    0

  ZNUC SCFIT  TOTAL HF ENERGY   KINETIC ENERGY   VIRIAL THEOREM ACCURACY
   9.0  28   -9.941465138E+01  9.937084613E+01 -2.000440826E+00  3.8E-06

 NUCLEAR CHARGE 19.0  SYMMETRY SPECIES            S    P
 N. ELECTRONS   18.0  NUMBER OF PRIMITIVE GTOS   21   13
                      NUMBER OF CONTRACTED GTOS   5    4
                      NUMBER OF CLOSED SHELLS     3    2
                      OPEN SHELL OCCUPATION       0    0

  ZNUC SCFIT  TOTAL HF ENERGY   KINETIC ENERGY   VIRIAL THEOREM ACCURACY
  19.0   8   -5.989803225E+02  5.986852286E+02 -2.000492903E+00  1.3E-06

 AAAAAAAAAAAAAAAAAAAAAAAAAAAAAAAAAAAAAAAAAAAAAAAAAAAAAAAAAAAAAAAAAAAAAAAAAAAAAAA

 CHARGE NORMALIZATION FACTOR   1.00000000
 TOTAL ATOMIC CHARGES:
  23.0000000  10.0000000  10.0000000  10.0000000  18.0000000
 SUMMED SPIN DENSITY           0.00000000
 TOTAL ATOMIC SPINS  :
   0.0000000   0.0000000   0.0000000   0.0000000   0.0000000
 TTTTTTTTTTTTTTTTTTTTTTTTTTTTTT MOQGAD      TELAPSE        0.34 TCPU        0.09
 TTTTTTTTTTTTTTTTTTTTTTTTTTTTTT SHELLX2     TELAPSE        3.85 TCPU        3.56
 TTTTTTTTTTTTTTTTTTTTTTTTTTTTTT MONMO3      TELAPSE        3.92 TCPU        3.61
 CYC   0 ETOT(AU) -2.046942899218E+03 DETOT -2.05E+03 tst  0.00E+00 PX  1.00E+00
 TTTTTTTTTTTTTTTTTTTTTTTTTTTTTT FDIK        TELAPSE        4.04 TCPU        3.73

    ALPHA      ELECTRONS
 INSULATING STATE - LEVEL SHIFTER    0.30 au
 TOP OF VALENCE BANDS -    BAND     38; K    1; EIG -1.0000000E+00 AU
 BOTTOM OF VIRTUAL BANDS - BAND     39; K    1; EIG  1.0000000E+00 AU

    BETA       ELECTRONS
 INSULATING STATE - LEVEL SHIFTER    0.30 au
 TOP OF VALENCE BANDS -    BAND     33; K    1; EIG -1.0000000E+00 AU
 BOTTOM OF VIRTUAL BANDS - BAND     34; K    1; EIG  1.0000000E+00 AU
 TTTTTTTTTTTTTTTTTTTTTTTTTTTTTT PDIG        TELAPSE        4.06 TCPU        3.75
 CHARGE NORMALIZATION FACTOR   1.00000000
 TOTAL ATOMIC CHARGES:
  23.3186664   9.8915147   9.8915147   9.8915147  18.0067897
 SUMMED SPIN DENSITY           5.00000000
 TOTAL ATOMIC SPINS  :
   4.8331784   0.0549162   0.0549162   0.0549162   0.0020729
 TTTTTTTTTTTTTTTTTTTTTTTTTTTTTT MOQGAD      TELAPSE        4.08 TCPU        3.77
 TTTTTTTTTTTTTTTTTTTTTTTTTTTTTT SHELLX2     TELAPSE        7.81 TCPU        7.51
 TTTTTTTTTTTTTTTTTTTTTTTTTTTTTT MONMO3      TELAPSE        7.86 TCPU        7.55
 CYC   1 ETOT(AU) -2.047542563102E+03 DETOT -6.00E-01 tst  0.00E+00 PX  1.00E+00
 TTTTTTTTTTTTTTTTTTTTTTTTTTTTTT FDIK        TELAPSE        7.93 TCPU        7.62

    ALPHA      ELECTRONS
 INSULATING STATE - LEVEL SHIFTER    0.30 au
 TOP OF VALENCE BANDS -    BAND     38; K    1; EIG -1.0000000E+00 AU
 BOTTOM OF VIRTUAL BANDS - BAND     39; K    1; EIG  1.0000000E+00 AU

    BETA       ELECTRONS
 INSULATING STATE - LEVEL SHIFTER    0.30 au
 TOP OF VALENCE BANDS -    BAND     33; K    1; EIG -1.0000000E+00 AU
 BOTTOM OF VIRTUAL BANDS - BAND     34; K    1; EIG  1.0000000E+00 AU
 TTTTTTTTTTTTTTTTTTTTTTTTTTTTTT PDIG        TELAPSE        7.95 TCPU        7.64
 CHARGE NORMALIZATION FACTOR   1.00000000
 TOTAL ATOMIC CHARGES:
  23.2960610   9.8993904   9.8993904   9.8993904  18.0057677
 SUMMED SPIN DENSITY           5.00000000
 TOTAL ATOMIC SPINS  :
   4.8572268   0.0476507   0.0476507   0.0476507  -0.0001788
 TTTTTTTTTTTTTTTTTTTTTTTTTTTTTT MOQGAD      TELAPSE        7.97 TCPU        7.66
 TTTTTTTTTTTTTTTTTTTTTTTTTTTTTT SHELLX2     TELAPSE       11.69 TCPU       11.38
 TTTTTTTTTTTTTTTTTTTTTTTTTTTTTT MONMO3      TELAPSE       11.74 TCPU       11.43
 CYC   2 ETOT(AU) -2.047623779802E+03 DETOT -8.12E-02 tst  1.13E-02 PX  8.19E-02
 TTTTTTTTTTTTTTTTTTTTTTTTTTTTTT FDIK        TELAPSE       11.80 TCPU       11.50

    ALPHA      ELECTRONS
 INSULATING STATE - LEVEL SHIFTER    0.30 au
 TOP OF VALENCE BANDS -    BAND     38; K    1; EIG -1.0000000E+00 AU
 BOTTOM OF VIRTUAL BANDS - BAND     39; K    1; EIG  1.0000000E+00 AU

    BETA       ELECTRONS
 INSULATING STATE - LEVEL SHIFTER    0.30 au
 TOP OF VALENCE BANDS -    BAND     33; K    1; EIG -1.0000000E+00 AU
 BOTTOM OF VIRTUAL BANDS - BAND     34; K    1; EIG  1.0000000E+00 AU
 TTTTTTTTTTTTTTTTTTTTTTTTTTTTTT PDIG        TELAPSE       11.82 TCPU       11.52
 CHARGE NORMALIZATION FACTOR   1.00000000
 TOTAL ATOMIC CHARGES:
  23.2667848   9.9091773   9.9091773   9.9091773  18.0056832
 SUMMED SPIN DENSITY           5.00000000
 TOTAL ATOMIC SPINS  :
   4.8917725   0.0363550   0.0363550   0.0363550  -0.0008374
 TTTTTTTTTTTTTTTTTTTTTTTTTTTTTT MOQGAD      TELAPSE       11.84 TCPU       11.53
 TTTTTTTTTTTTTTTTTTTTTTTTTTTTTT SHELLX2     TELAPSE       15.56 TCPU       15.26
 TTTTTTTTTTTTTTTTTTTTTTTTTTTTTT MONMO3      TELAPSE       15.60 TCPU       15.30
 CYC   3 ETOT(AU) -2.047637703025E+03 DETOT -1.39E-02 tst  2.20E-03 PX  2.50E-02
 TTTTTTTTTTTTTTTTTTTTTTTTTTTTTT FDIK        TELAPSE       15.67 TCPU       15.37

    ALPHA      ELECTRONS
 INSULATING STATE - LEVEL SHIFTER    0.30 au
 TOP OF VALENCE BANDS -    BAND     38; K    1; EIG -1.0000000E+00 AU
 BOTTOM OF VIRTUAL BANDS - BAND     39; K    1; EIG  1.0000000E+00 AU

    BETA       ELECTRONS
 INSULATING STATE - LEVEL SHIFTER    0.30 au
 TOP OF VALENCE BANDS -    BAND     33; K    1; EIG -1.0000000E+00 AU
 BOTTOM OF VIRTUAL BANDS - BAND     34; K    1; EIG  1.0000000E+00 AU
 TTTTTTTTTTTTTTTTTTTTTTTTTTTTTT PDIG        TELAPSE       15.69 TCPU       15.39
 CHARGE NORMALIZATION FACTOR   1.00000000
 TOTAL ATOMIC CHARGES:
  23.2479870   9.9154336   9.9154336   9.9154336  18.0057121
 SUMMED SPIN DENSITY           5.00000000
 TOTAL ATOMIC SPINS  :
   4.9128859   0.0293642   0.0293642   0.0293642  -0.0009785
 TTTTTTTTTTTTTTTTTTTTTTTTTTTTTT MOQGAD      TELAPSE       15.71 TCPU       15.40
 TTTTTTTTTTTTTTTTTTTTTTTTTTTTTT SHELLX2     TELAPSE       19.44 TCPU       19.14
 TTTTTTTTTTTTTTTTTTTTTTTTTTTTTT MONMO3      TELAPSE       19.48 TCPU       19.18
 CYC   4 ETOT(AU) -2.047641694485E+03 DETOT -3.99E-03 tst  7.78E-04 PX  1.13E-02
 TTTTTTTTTTTTTTTTTTTTTTTTTTTTTT FDIK        TELAPSE       19.55 TCPU       19.25

    ALPHA      ELECTRONS
 INSULATING STATE - LEVEL SHIFTER    0.30 au
 TOP OF VALENCE BANDS -    BAND     38; K    1; EIG -1.0000000E+00 AU
 BOTTOM OF VIRTUAL BANDS - BAND     39; K    1; EIG  1.0000000E+00 AU

    BETA       ELECTRONS
 INSULATING STATE - LEVEL SHIFTER    0.30 au
 TOP OF VALENCE BANDS -    BAND     33; K    1; EIG -1.0000000E+00 AU
 BOTTOM OF VIRTUAL BANDS - BAND     34; K    1; EIG  1.0000000E+00 AU
 TTTTTTTTTTTTTTTTTTTTTTTTTTTTTT PDIG        TELAPSE       19.57 TCPU       19.27
 CHARGE NORMALIZATION FACTOR   1.00000000
 TOTAL ATOMIC CHARGES:
  23.2372403   9.9189975   9.9189975   9.9189975  18.0057670
 SUMMED SPIN DENSITY           5.00000000
 TOTAL ATOMIC SPINS  :
   4.9249002   0.0253847   0.0253847   0.0253847  -0.0010544
 TTTTTTTTTTTTTTTTTTTTTTTTTTTTTT MOQGAD      TELAPSE       19.59 TCPU       19.29
 TTTTTTTTTTTTTTTTTTTTTTTTTTTTTT SHELLX2     TELAPSE       23.30 TCPU       23.00
 TTTTTTTTTTTTTTTTTTTTTTTTTTTTTT MONMO3      TELAPSE       23.34 TCPU       23.04
 CYC   5 ETOT(AU) -2.047642873693E+03 DETOT -1.18E-03 tst  2.31E-04 PX  6.12E-03
 TTTTTTTTTTTTTTTTTTTTTTTTTTTTTT FDIK        TELAPSE       23.41 TCPU       23.11

    ALPHA      ELECTRONS
 INSULATING STATE - LEVEL SHIFTER    0.30 au
 TOP OF VALENCE BANDS -    BAND     38; K    1; EIG -1.0000000E+00 AU
 BOTTOM OF VIRTUAL BANDS - BAND     39; K    1; EIG  1.0000000E+00 AU

    BETA       ELECTRONS
 INSULATING STATE - LEVEL SHIFTER    0.30 au
 TOP OF VALENCE BANDS -    BAND     33; K    1; EIG -1.0000000E+00 AU
 BOTTOM OF VIRTUAL BANDS - BAND     34; K    1; EIG  1.0000000E+00 AU
 TTTTTTTTTTTTTTTTTTTTTTTTTTTTTT PDIG        TELAPSE       23.43 TCPU       23.13
 CHARGE NORMALIZATION FACTOR   1.00000000
 TOTAL ATOMIC CHARGES:
  23.2311384   9.9210229   9.9210229   9.9210229  18.0057929
 SUMMED SPIN DENSITY           5.00000000
 TOTAL ATOMIC SPINS  :
   4.9318468   0.0230808   0.0230808   0.0230808  -0.0010891
 TTTTTTTTTTTTTTTTTTTTTTTTTTTTTT MOQGAD      TELAPSE       23.45 TCPU       23.15
 TTTTTTTTTTTTTTTTTTTTTTTTTTTTTT SHELLX2     TELAPSE       27.16 TCPU       26.86
 TTTTTTTTTTTTTTTTTTTTTTTTTTTTTT MONMO3      TELAPSE       27.20 TCPU       26.90
 CYC   6 ETOT(AU) -2.047643239082E+03 DETOT -3.65E-04 tst  7.24E-05 PX  3.45E-03
 TTTTTTTTTTTTTTTTTTTTTTTTTTTTTT FDIK        TELAPSE       27.27 TCPU       26.97

    ALPHA      ELECTRONS
 INSULATING STATE - LEVEL SHIFTER    0.30 au
 TOP OF VALENCE BANDS -    BAND     38; K    1; EIG -1.0000000E+00 AU
 BOTTOM OF VIRTUAL BANDS - BAND     39; K    1; EIG  1.0000000E+00 AU

    BETA       ELECTRONS
 INSULATING STATE - LEVEL SHIFTER    0.30 au
 TOP OF VALENCE BANDS -    BAND     33; K    1; EIG -1.0000000E+00 AU
 BOTTOM OF VIRTUAL BANDS - BAND     34; K    1; EIG  1.0000000E+00 AU
 TTTTTTTTTTTTTTTTTTTTTTTTTTTTTT PDIG        TELAPSE       27.29 TCPU       27.00
 CHARGE NORMALIZATION FACTOR   1.00000000
 TOTAL ATOMIC CHARGES:
  23.2276570   9.9221802   9.9221802   9.9221802  18.0058026
 SUMMED SPIN DENSITY           5.00000000
 TOTAL ATOMIC SPINS  :
   4.9358999   0.0217353   0.0217353   0.0217353  -0.0011059
 TTTTTTTTTTTTTTTTTTTTTTTTTTTTTT MOQGAD      TELAPSE       27.31 TCPU       27.01
 TTTTTTTTTTTTTTTTTTTTTTTTTTTTTT SHELLX2     TELAPSE       31.01 TCPU       30.72
 TTTTTTTTTTTTTTTTTTTTTTTTTTTTTT MONMO3      TELAPSE       31.06 TCPU       30.76
 CYC   7 ETOT(AU) -2.047643356376E+03 DETOT -1.17E-04 tst  2.37E-05 PX  2.00E-03
 TTTTTTTTTTTTTTTTTTTTTTTTTTTTTT FDIK        TELAPSE       31.12 TCPU       30.83

    ALPHA      ELECTRONS
 INSULATING STATE - LEVEL SHIFTER    0.30 au
 TOP OF VALENCE BANDS -    BAND     38; K    1; EIG -1.0000000E+00 AU
 BOTTOM OF VIRTUAL BANDS - BAND     39; K    1; EIG  1.0000000E+00 AU

    BETA       ELECTRONS
 INSULATING STATE - LEVEL SHIFTER    0.30 au
 TOP OF VALENCE BANDS -    BAND     33; K    1; EIG -1.0000000E+00 AU
 BOTTOM OF VIRTUAL BANDS - BAND     34; K    1; EIG  1.0000000E+00 AU
 TTTTTTTTTTTTTTTTTTTTTTTTTTTTTT PDIG        TELAPSE       31.14 TCPU       30.85
 CHARGE NORMALIZATION FACTOR   1.00000000
 TOTAL ATOMIC CHARGES:
  23.2256699   9.9228401   9.9228401   9.9228401  18.0058098
 SUMMED SPIN DENSITY           5.00000000
 TOTAL ATOMIC SPINS  :
   4.9382703   0.0209485   0.0209485   0.0209485  -0.0011156
 TTTTTTTTTTTTTTTTTTTTTTTTTTTTTT MOQGAD      TELAPSE       31.16 TCPU       30.87
 TTTTTTTTTTTTTTTTTTTTTTTTTTTTTT SHELLX2     TELAPSE       34.86 TCPU       34.57
 TTTTTTTTTTTTTTTTTTTTTTTTTTTTTT MONMO3      TELAPSE       34.91 TCPU       34.61
 CYC   8 ETOT(AU) -2.047643395391E+03 DETOT -3.90E-05 tst  7.96E-06 PX  1.15E-03
 TTTTTTTTTTTTTTTTTTTTTTTTTTTTTT FDIK        TELAPSE       34.98 TCPU       34.68

    ALPHA      ELECTRONS
 INSULATING STATE - LEVEL SHIFTER    0.30 au
 TOP OF VALENCE BANDS -    BAND     38; K    1; EIG -1.0000000E+00 AU
 BOTTOM OF VIRTUAL BANDS - BAND     39; K    1; EIG  1.0000000E+00 AU

    BETA       ELECTRONS
 INSULATING STATE - LEVEL SHIFTER    0.30 au
 TOP OF VALENCE BANDS -    BAND     33; K    1; EIG -1.0000000E+00 AU
 BOTTOM OF VIRTUAL BANDS - BAND     34; K    1; EIG  1.0000000E+00 AU
 TTTTTTTTTTTTTTTTTTTTTTTTTTTTTT PDIG        TELAPSE       35.00 TCPU       34.70
 CHARGE NORMALIZATION FACTOR   1.00000000
 TOTAL ATOMIC CHARGES:
  23.2245361   9.9232162   9.9232162   9.9232162  18.0058152
 SUMMED SPIN DENSITY           5.00000000
 TOTAL ATOMIC SPINS  :
   4.9396596   0.0204870   0.0204870   0.0204870  -0.0011207
 TTTTTTTTTTTTTTTTTTTTTTTTTTTTTT MOQGAD      TELAPSE       35.01 TCPU       34.72
 TTTTTTTTTTTTTTTTTTTTTTTTTTTTTT SHELLX2     TELAPSE       38.71 TCPU       38.42
 TTTTTTTTTTTTTTTTTTTTTTTTTTTTTT MONMO3      TELAPSE       38.76 TCPU       38.47
 CYC   9 ETOT(AU) -2.047643409023E+03 DETOT -1.36E-05 tst  2.74E-06 PX  6.49E-04
 TTTTTTTTTTTTTTTTTTTTTTTTTTTTTT FDIK        TELAPSE       38.83 TCPU       38.54

    ALPHA      ELECTRONS
 INSULATING STATE - LEVEL SHIFTER    0.30 au
 TOP OF VALENCE BANDS -    BAND     38; K    1; EIG -1.0000000E+00 AU
 BOTTOM OF VIRTUAL BANDS - BAND     39; K    1; EIG  1.0000000E+00 AU

    BETA       ELECTRONS
 INSULATING STATE - LEVEL SHIFTER    0.30 au
 TOP OF VALENCE BANDS -    BAND     33; K    1; EIG -1.0000000E+00 AU
 BOTTOM OF VIRTUAL BANDS - BAND     34; K    1; EIG  1.0000000E+00 AU
 TTTTTTTTTTTTTTTTTTTTTTTTTTTTTT PDIG        TELAPSE       38.85 TCPU       38.56
 CHARGE NORMALIZATION FACTOR   1.00000000
 TOTAL ATOMIC CHARGES:
  23.2238847   9.9234320   9.9234320   9.9234320  18.0058193
 SUMMED SPIN DENSITY           5.00000000
 TOTAL ATOMIC SPINS  :
   4.9404799   0.0202142   0.0202142   0.0202142  -0.0011225
 TTTTTTTTTTTTTTTTTTTTTTTTTTTTTT MOQGAD      TELAPSE       38.86 TCPU       38.57
 TTTTTTTTTTTTTTTTTTTTTTTTTTTTTT SHELLX2     TELAPSE       42.57 TCPU       42.28
 TTTTTTTTTTTTTTTTTTTTTTTTTTTTTT MONMO3      TELAPSE       42.61 TCPU       42.32
 CYC  10 ETOT(AU) -2.047643414077E+03 DETOT -5.05E-06 tst  9.73E-07 PX  3.66E-04
 TTTTTTTTTTTTTTTTTTTTTTTTTTTTTT FDIK        TELAPSE       42.68 TCPU       42.39

    ALPHA      ELECTRONS
 INSULATING STATE - LEVEL SHIFTER    0.30 au
 TOP OF VALENCE BANDS -    BAND     38; K    1; EIG -1.0000000E+00 AU
 BOTTOM OF VIRTUAL BANDS - BAND     39; K    1; EIG  1.0000000E+00 AU

    BETA       ELECTRONS
 INSULATING STATE - LEVEL SHIFTER    0.30 au
 TOP OF VALENCE BANDS -    BAND     33; K    1; EIG -1.0000000E+00 AU
 BOTTOM OF VIRTUAL BANDS - BAND     34; K    1; EIG  1.0000000E+00 AU
 TTTTTTTTTTTTTTTTTTTTTTTTTTTTTT PDIG        TELAPSE       42.70 TCPU       42.41
 CHARGE NORMALIZATION FACTOR   1.00000000
 TOTAL ATOMIC CHARGES:
  23.2235079   9.9235568   9.9235568   9.9235568  18.0058217
 SUMMED SPIN DENSITY           5.00000000
 TOTAL ATOMIC SPINS  :
   4.9409687   0.0200514   0.0200514   0.0200514  -0.0011228
 TTTTTTTTTTTTTTTTTTTTTTTTTTTTTT MOQGAD      TELAPSE       42.71 TCPU       42.43
 TTTTTTTTTTTTTTTTTTTTTTTTTTTTTT SHELLX2     TELAPSE       46.59 TCPU       46.30
 TTTTTTTTTTTTTTTTTTTTTTTTTTTTTT MONMO3      TELAPSE       46.63 TCPU       46.34
 CYC  11 ETOT(AU) -2.047643416097E+03 DETOT -2.02E-06 tst  3.57E-07 PX  2.56E-04
 TTTTTTTTTTTTTTTTTTTTTTTTTTTTTT FDIK        TELAPSE       46.70 TCPU       46.42

    ALPHA      ELECTRONS
 INSULATING STATE - LEVEL SHIFTER    0.30 au
 TOP OF VALENCE BANDS -    BAND     38; K    1; EIG -1.0000000E+00 AU
 BOTTOM OF VIRTUAL BANDS - BAND     39; K    1; EIG  1.0000000E+00 AU

    BETA       ELECTRONS
 INSULATING STATE - LEVEL SHIFTER    0.30 au
 TOP OF VALENCE BANDS -    BAND     33; K    1; EIG -1.0000000E+00 AU
 BOTTOM OF VIRTUAL BANDS - BAND     34; K    1; EIG  1.0000000E+00 AU
 TTTTTTTTTTTTTTTTTTTTTTTTTTTTTT PDIG        TELAPSE       46.72 TCPU       46.44
 CHARGE NORMALIZATION FACTOR   1.00000000
 TOTAL ATOMIC CHARGES:
  23.2232871   9.9236298   9.9236298   9.9236298  18.0058236
 SUMMED SPIN DENSITY           5.00000000
 TOTAL ATOMIC SPINS  :
   4.9412642   0.0199527   0.0199527   0.0199527  -0.0011223
 TTTTTTTTTTTTTTTTTTTTTTTTTTTTTT MOQGAD      TELAPSE       46.74 TCPU       46.45
 TTTTTTTTTTTTTTTTTTTTTTTTTTTTTT SHELLX2     TELAPSE       50.57 TCPU       50.28
 TTTTTTTTTTTTTTTTTTTTTTTTTTTTTT MONMO3      TELAPSE       50.61 TCPU       50.33
 CYC  12 ETOT(AU) -2.047643416966E+03 DETOT -8.68E-07 tst  1.36E-07 PX  1.89E-04
 TTTTTTTTTTTTTTTTTTTTTTTTTTTTTT FDIK        TELAPSE       50.68 TCPU       50.39

    ALPHA      ELECTRONS
 INSULATING STATE - LEVEL SHIFTER    0.30 au
 TOP OF VALENCE BANDS -    BAND     38; K    1; EIG -1.0000000E+00 AU
 BOTTOM OF VIRTUAL BANDS - BAND     39; K    1; EIG  1.0000000E+00 AU

    BETA       ELECTRONS
 INSULATING STATE - LEVEL SHIFTER    0.30 au
 TOP OF VALENCE BANDS -    BAND     33; K    1; EIG -1.0000000E+00 AU
 BOTTOM OF VIRTUAL BANDS - BAND     34; K    1; EIG  1.0000000E+00 AU
 TTTTTTTTTTTTTTTTTTTTTTTTTTTTTT PDIG        TELAPSE       50.70 TCPU       50.41
 CHARGE NORMALIZATION FACTOR   1.00000000
 TOTAL ATOMIC CHARGES:
  23.2231557   9.9236732   9.9236732   9.9236732  18.0058248
 SUMMED SPIN DENSITY           5.00000000
 TOTAL ATOMIC SPINS  :
   4.9414457   0.0198918   0.0198918   0.0198918  -0.0011211
 TTTTTTTTTTTTTTTTTTTTTTTTTTTTTT MOQGAD      TELAPSE       50.71 TCPU       50.43
 TTTTTTTTTTTTTTTTTTTTTTTTTTTTTT SHELLX2     TELAPSE       54.55 TCPU       54.27
 TTTTTTTTTTTTTTTTTTTTTTTTTTTTTT MONMO3      TELAPSE       54.60 TCPU       54.32
 CYC  13 ETOT(AU) -2.047643417365E+03 DETOT -3.99E-07 tst  5.37E-08 PX  1.40E-04
 TTTTTTTTTTTTTTTTTTTTTTTTTTTTTT FDIK        TELAPSE       54.67 TCPU       54.39

    ALPHA      ELECTRONS
 INSULATING STATE - LEVEL SHIFTER    0.30 au
 TOP OF VALENCE BANDS -    BAND     38; K    1; EIG -1.0000000E+00 AU
 BOTTOM OF VIRTUAL BANDS - BAND     39; K    1; EIG  1.0000000E+00 AU

    BETA       ELECTRONS
 INSULATING STATE - LEVEL SHIFTER    0.30 au
 TOP OF VALENCE BANDS -    BAND     33; K    1; EIG -1.0000000E+00 AU
 BOTTOM OF VIRTUAL BANDS - BAND     34; K    1; EIG  1.0000000E+00 AU
 TTTTTTTTTTTTTTTTTTTTTTTTTTTTTT PDIG        TELAPSE       54.70 TCPU       54.42
 CHARGE NORMALIZATION FACTOR   1.00000000
 TOTAL ATOMIC CHARGES:
  23.2230760   9.9236995   9.9236995   9.9236995  18.0058256
 SUMMED SPIN DENSITY           5.00000000
 TOTAL ATOMIC SPINS  :
   4.9415592   0.0198535   0.0198535   0.0198535  -0.0011198
 TTTTTTTTTTTTTTTTTTTTTTTTTTTTTT MOQGAD      TELAPSE       54.71 TCPU       54.43
 TTTTTTTTTTTTTTTTTTTTTTTTTTTTTT SHELLX2     TELAPSE       58.43 TCPU       58.15
 TTTTTTTTTTTTTTTTTTTTTTTTTTTTTT MONMO3      TELAPSE       58.47 TCPU       58.20
 CYC  14 ETOT(AU) -2.047643417557E+03 DETOT -1.92E-07 tst  2.21E-08 PX  1.03E-04
 TTTTTTTTTTTTTTTTTTTTTTTTTTTTTT FDIK        TELAPSE       58.54 TCPU       58.26

    ALPHA      ELECTRONS
 INSULATING STATE - LEVEL SHIFTER    0.30 au
 TOP OF VALENCE BANDS -    BAND     38; K    1; EIG -1.0000000E+00 AU
 BOTTOM OF VIRTUAL BANDS - BAND     39; K    1; EIG  1.0000000E+00 AU

    BETA       ELECTRONS
 INSULATING STATE - LEVEL SHIFTER    0.30 au
 TOP OF VALENCE BANDS -    BAND     33; K    1; EIG -1.0000000E+00 AU
 BOTTOM OF VIRTUAL BANDS - BAND     34; K    1; EIG  1.0000000E+00 AU
 TTTTTTTTTTTTTTTTTTTTTTTTTTTTTT PDIG        TELAPSE       58.56 TCPU       58.28
 CHARGE NORMALIZATION FACTOR   1.00000000
 TOTAL ATOMIC CHARGES:
  23.2230265   9.9237158   9.9237158   9.9237158  18.0058261
 SUMMED SPIN DENSITY           5.00000000
 TOTAL ATOMIC SPINS  :
   4.9416318   0.0198289   0.0198289   0.0198289  -0.0011185
 TTTTTTTTTTTTTTTTTTTTTTTTTTTTTT MOQGAD      TELAPSE       58.58 TCPU       58.30
 TTTTTTTTTTTTTTTTTTTTTTTTTTTTTT SHELLX2     TELAPSE       62.28 TCPU       62.00
 TTTTTTTTTTTTTTTTTTTTTTTTTTTTTT MONMO3      TELAPSE       62.32 TCPU       62.05
 CYC  15 ETOT(AU) -2.047643417652E+03 DETOT -9.50E-08 tst  9.72E-09 PX  7.67E-05
 TTTTTTTTTTTTTTTTTTTTTTTTTTTTTT FDIK        TELAPSE       62.39 TCPU       62.11

    ALPHA      ELECTRONS
 INSULATING STATE - LEVEL SHIFTER    0.30 au
 TOP OF VALENCE BANDS -    BAND     38; K    1; EIG -1.0000000E+00 AU
 BOTTOM OF VIRTUAL BANDS - BAND     39; K    1; EIG  1.0000000E+00 AU

    BETA       ELECTRONS
 INSULATING STATE - LEVEL SHIFTER    0.30 au
 TOP OF VALENCE BANDS -    BAND     33; K    1; EIG -1.0000000E+00 AU
 BOTTOM OF VIRTUAL BANDS - BAND     34; K    1; EIG  1.0000000E+00 AU
 TTTTTTTTTTTTTTTTTTTTTTTTTTTTTT PDIG        TELAPSE       62.41 TCPU       62.13
 CHARGE NORMALIZATION FACTOR   1.00000000
 TOTAL ATOMIC CHARGES:
  23.2229951   9.9237262   9.9237262   9.9237262  18.0058264
 SUMMED SPIN DENSITY           5.00000000
 TOTAL ATOMIC SPINS  :
   4.9416792   0.0198127   0.0198127   0.0198127  -0.0011173
 TTTTTTTTTTTTTTTTTTTTTTTTTTTTTT MOQGAD      TELAPSE       62.43 TCPU       62.15
 TTTTTTTTTTTTTTTTTTTTTTTTTTTTTT SHELLX2     TELAPSE       66.23 TCPU       65.96
 +++ ENERGIES IN A.U. +++
 ::: EXT EL-POLE                                  -1.2271440615299E+03
 ::: EXT EL-SPHEROPOLE                             1.1598580197659E+01
 ::: BIELET ZONE E-E                               1.6968208505170E+03
 ::: TOTAL E-E                                     4.8127536918481E+02
 ::: TOTAL E-N + N-E                              -4.2437561415387E+03
 ::: TOTAL N-N                                    -3.3210346877427E+02
 ::: KINETIC ENERGY                                2.0469408234289E+03
 ::: TOTAL   ENERGY                               -2.0476434176992E+03
 ::: VIRIAL COEFFICIENT                            9.9982840888626E-01
 TTTTTTTTTTTTTTTTTTTTTTTTTTTTTT MONMO3      TELAPSE       66.28 TCPU       66.00
 CYC  16 ETOT(AU) -2.047643417699E+03 DETOT -4.72E-08 tst  5.25E-09 PX  7.67E-05

 == SCF ENDED - CONVERGENCE ON ENERGY      E(AU) -2.0476434176992E+03 CYCLES  16

 TOTAL ENERGY(HF)(AU)(  16) -2.0476434176992E+03 DE-4.7E-08 tst 5.2E-09 PX 7.7E-05

 NEIGHBORS OF THE NON-EQUIVALENT ATOMS

 N = NUMBER OF NEIGHBORS AT DISTANCE R
    ATOM  N     R/ANG      R/AU   NEIGHBORS (ATOM LABELS AND CELL INDICES)
   1 MN   6     2.0950     3.9590    2 F    0 0 0    2 F   -1 0 0    3 F    0 0 0
                                     3 F    0-1 0    4 F    0 0 0    4 F    0 0-1
   1 MN   8     3.6286     6.8571    5 K    0 0 0    5 K   -1 0 0    5 K    0-1 0
                                     5 K    0 0-1    5 K   -1-1 0    5 K   -1 0-1
                                     5 K    0-1-1    5 K   -1-1-1
   1 MN   6     4.1900     7.9180    1 MN  -1 0 0    1 MN   1 0 0    1 MN   0-1 0
                                     1 MN   0 1 0    1 MN   0 0-1    1 MN   0 0 1
   1 MN  24     4.6846     8.8525    2 F    0 1 0    2 F    0-1 0    2 F    0 0 1
                                     2 F    0 0-1    2 F   -1-1 0    2 F   -1 0-1
                                     2 F   -1 0 1    2 F   -1 1 0    3 F    0 0 1
                                     3 F    0 0-1    3 F    1 0 0    3 F   -1 0 0
                                     3 F    0-1-1    3 F   -1-1 0    3 F    1-1 0
                                     3 F    0-1 1    4 F    1 0 0    4 F   -1 0 0
                                     4 F    0 1 0    4 F    0-1 0    4 F   -1 0-1
                                     4 F    0-1-1    4 F    0 1-1    4 F    1 0-1
   1 MN  12     5.9256    11.1977    1 MN  -1-1 0    1 MN   1 1 0    1 MN  -1 0-1
                                     1 MN   1 0 1    1 MN  -1 0 1    1 MN   1 0-1
                                     1 MN  -1 1 0    1 MN   1-1 0    1 MN   0-1-1
                                     1 MN   0 1 1    1 MN   0-1 1    1 MN   0 1-1
   1 MN  30     6.2850    11.8769    2 F    1 0 0    2 F    0 1 1    2 F    0-1-1
                                     2 F    0 1-1    2 F    0-1 1    2 F   -1-1-1
                                     2 F   -1-1 1    2 F   -1 1-1    2 F   -1 1 1
                                     2 F   -2 0 0    3 F    0 1 0    3 F    1 0 1
                                     3 F   -1 0-1    3 F   -1 0 1    3 F    1 0-1
                                     3 F   -1-1-1    3 F    1-1-1    3 F   -1-1 1
                                     3 F    1-1 1    3 F    0-2 0    4 F    0 0 1
                                     4 F    1 1 0    4 F   -1-1 0    4 F    1-1 0
                                     4 F   -1 1 0    4 F   -1-1-1    4 F   -1 1-1
                                     4 F    1-1-1    4 F    1 1-1    4 F    0 0-2

   2 F    2     2.0950     3.9590    1 MN   0 0 0    1 MN   1 0 0
   2 F    8     2.9628     5.5988    3 F    0 0 0    3 F    1 0 0    3 F    0-1 0
                                     3 F    1-1 0    4 F    0 0 0    4 F    0 0-1
                                     4 F    1 0 0    4 F    1 0-1
   2 F    4     2.9628     5.5988    5 K    0 0 0    5 K    0-1 0    5 K    0 0-1
                                     5 K    0-1-1
   2 F    6     4.1900     7.9180    2 F   -1 0 0    2 F    1 0 0    2 F    0-1 0
                                     2 F    0 1 0    2 F    0 0-1    2 F    0 0 1
   2 F    8     4.6846     8.8525    1 MN   0-1 0    1 MN   0 1 0    1 MN   0 0-1
                                     1 MN   0 0 1    1 MN   1 1 0    1 MN   1 0 1
                                     1 MN   1 0-1    1 MN   1-1 0
   2 F   16     5.1317     9.6975    3 F    0 0 1    3 F    0 0-1    3 F    1 0 1
                                     3 F    1 0-1    3 F    0-1-1    3 F    0-1 1
                                     3 F    1-1 1    3 F    1-1-1    4 F    0-1 0
                                     4 F    0 1 0    4 F    0-1-1    4 F    0 1-1
                                     4 F    1 1 0    4 F    1-1 0    4 F    1-1-1
                                     4 F    1 1-1

   5 K   12     2.9628     5.5988    2 F    0 0 0    2 F    0 1 0    2 F    0 0 1
                                     2 F    0 1 1    3 F    0 0 0    3 F    0 0 1
                                     3 F    1 0 0    3 F    1 0 1    4 F    0 0 0
                                     4 F    1 0 0    4 F    0 1 0    4 F    1 1 0
   5 K    8     3.6286     6.8571    1 MN   0 0 0    1 MN   1 0 0    1 MN   0 1 0
                                     1 MN   0 0 1    1 MN   1 1 0    1 MN   1 0 1
                                     1 MN   0 1 1    1 MN   1 1 1
   5 K    6     4.1900     7.9180    5 K   -1 0 0    5 K    1 0 0    5 K    0-1 0
                                     5 K    0 1 0    5 K    0 0-1    5 K    0 0 1
   5 K   24     5.1317     9.6975    2 F   -1 0 0    2 F    1 0 0    2 F    1 1 0
                                     2 F    1 0 1    2 F   -1 0 1    2 F   -1 1 0
                                     2 F    1 1 1    2 F   -1 1 1    3 F    0-1 0
                                     3 F    0 1 0    3 F    0 1 1    3 F    1 1 0
                                     3 F    1-1 0    3 F    0-1 1    3 F    1 1 1
                                     3 F    1-1 1    4 F    0 0-1    4 F    0 0 1
                                     4 F    1 0 1    4 F    0 1 1    4 F    0 1-1
                                     4 F    1 0-1    4 F    1 1 1    4 F    1 1-1
   5 K   12     5.9256    11.1977    5 K   -1-1 0    5 K    1 1 0    5 K   -1 0-1
                                     5 K    1 0 1    5 K   -1 0 1    5 K    1 0-1
                                     5 K   -1 1 0    5 K    1-1 0    5 K    0-1-1
                                     5 K    0 1 1    5 K    0-1 1    5 K    0 1-1
   5 K   24     6.6250    12.5194    2 F    0-1 0    2 F    0 0-1    2 F    0-1 1
                                     2 F    0 1-1    2 F    0 2 0    2 F    0 0 2
                                     2 F    0 2 1    2 F    0 1 2    3 F    0 0-1
                                     3 F   -1 0 0    3 F    1 0-1    3 F   -1 0 1
                                     3 F    0 0 2    3 F    2 0 0    3 F    1 0 2
                                     3 F    2 0 1    4 F   -1 0 0    4 F    0-1 0
                                     4 F   -1 1 0    4 F    1-1 0    4 F    2 0 0
                                     4 F    0 2 0    4 F    2 1 0    4 F    1 2 0

 TTTTTTTTTTTTTTTTTTTTTTTTTTTTTT AFTER FIRST TELAPSE       66.29 TCPU       66.01
 MMMMMMMMMMMMMMMMMMMMMMMMMMMMMMMMMMMMMMMMMMMMMMMMMMMMMMMMMMMMMMMMMMMMMMMMMMMMMMM
     ALPHA+BETA ELECTRONS
 MULLIKEN POPULATION ANALYSIS - NO. OF ELECTRONS   71.000000

  ATOM    Z CHARGE  A.O. POPULATION

   1 MN  25 23.223  2.000  1.900  2.061  2.061  2.061  0.363  0.598  0.598
                    0.598  1.285  1.003  1.003  1.003  0.466  0.346  0.346
                    0.346  0.929  0.889  0.889  0.929  0.889  0.140  0.127
                    0.127  0.140  0.127
   2 F    9  9.924  1.999  0.814  1.003  1.042  1.042  0.994  0.690  0.673
                    0.673  0.184  0.266  0.272  0.272
   3 F    9  9.924  1.999  0.814  1.042  1.003  1.042  0.994  0.673  0.690
                    0.673  0.184  0.272  0.266  0.272
   4 F    9  9.924  1.999  0.814  1.042  1.042  1.003  0.994  0.673  0.673
                    0.690  0.184  0.272  0.272  0.266
   5 K   19 18.006  2.000  1.986  2.031  2.031  2.031  0.798  1.054  1.054
                    1.054  0.937  0.564  0.564  0.564  0.287  0.351  0.351
                    0.351

  ATOM    Z CHARGE  SHELL POPULATION

   1 MN  25 23.223  2.000  8.082  2.157  4.295  1.504  4.525  0.662
   2 F    9  9.924  1.999  3.900  3.031  0.994
   3 F    9  9.924  1.999  3.900  3.031  0.994
   4 F    9  9.924  1.999  3.900  3.031  0.994
   5 K   19 18.006  2.000  8.078  3.958  2.629  1.341

 OVERLAP POPULATION CONDENSED TO ATOMS FOR FIRST   6 NEIGHBORS

 ATOM A   1 MN   ATOM B     CELL      R(AB)/AU R(AB)/ANG    OVPOP(AB)
                  2 F    (  0  0  0)     3.959     2.095    -0.010
                  5 K    (  0  0  0)     6.857     3.629     0.000
                  1 MN   ( -1  0  0)     7.918     4.190     0.000
                  2 F    (  0  1  0)     8.853     4.685     0.000
                  1 MN   ( -1 -1  0)    11.198     5.926     0.000
                  2 F    (  1  0  0)    11.877     6.285     0.000

 ATOM A   2 F    ATOM B     CELL      R(AB)/AU R(AB)/ANG    OVPOP(AB)
                  1 MN   (  0  0  0)     3.959     2.095    -0.010
                  3 F    (  0  0  0)     5.599     2.963     0.001
                  5 K    (  0  0  0)     5.599     2.963    -0.001
                  2 F    ( -1  0  0)     7.918     4.190     0.000
                  1 MN   (  0 -1  0)     8.853     4.685     0.000
                  3 F    (  0  0  1)     9.697     5.132     0.000

 ATOM A   5 K    ATOM B     CELL      R(AB)/AU R(AB)/ANG    OVPOP(AB)
                  2 F    (  0  0  0)     5.599     2.963    -0.001
                  1 MN   (  0  0  0)     6.857     3.629     0.000
                  5 K    ( -1  0  0)     7.918     4.190     0.000
                  2 F    ( -1  0  0)     9.697     5.132     0.000
                  5 K    ( -1 -1  0)    11.198     5.926     0.000
                  2 F    (  0 -1  0)    12.519     6.625     0.000
 TTTTTTTTTTTTTTTTTTTTTTTTTTTTTT AFTER FIRST TELAPSE       66.29 TCPU       66.01
 MMMMMMMMMMMMMMMMMMMMMMMMMMMMMMMMMMMMMMMMMMMMMMMMMMMMMMMMMMMMMMMMMMMMMMMMMMMMMMM
     ALPHA-BETA ELECTRONS
 MULLIKEN POPULATION ANALYSIS - NO. OF ELECTRONS    5.000000

  ATOM    Z CHARGE  A.O. POPULATION

   1 MN  25  4.942  0.000  0.003 -0.002 -0.002 -0.002 -0.002  0.007  0.007
                    0.007  0.011  0.016  0.016  0.016 -0.008 -0.019 -0.019
                   -0.019  0.908  0.885  0.885  0.908  0.885  0.068  0.108
                    0.108  0.068  0.108
   2 F    9  0.020  0.000  0.005  0.015  0.009  0.009 -0.001 -0.005  0.000
                    0.000 -0.004  0.003 -0.007 -0.007
   3 F    9  0.020  0.000  0.005  0.009  0.015  0.009 -0.001  0.000 -0.005
                    0.000 -0.004 -0.007  0.003 -0.007
   4 F    9  0.020  0.000  0.005  0.009  0.009  0.015 -0.001  0.000  0.000
                   -0.005 -0.004 -0.007 -0.007  0.003
   5 K   19 -0.001  0.000  0.000  0.000  0.000  0.000  0.000  0.000  0.000
                    0.000  0.000  0.000  0.000  0.000  0.000  0.000  0.000
                    0.000

  ATOM    Z CHARGE  SHELL POPULATION

   1 MN  25  4.942  0.000 -0.003  0.018  0.058 -0.063  4.471  0.462
   2 F    9  0.020  0.000  0.039 -0.005 -0.014
   3 F    9  0.020  0.000  0.039 -0.005 -0.014
   4 F    9  0.020  0.000  0.039 -0.005 -0.014
   5 K   19 -0.001  0.000  0.000 -0.001  0.000 -0.001

 OVERLAP POPULATION CONDENSED TO ATOMS FOR FIRST   6 NEIGHBORS

 ATOM A   1 MN   ATOM B     CELL      R(AB)/AU R(AB)/ANG    OVPOP(AB)
                  2 F    (  0  0  0)     3.959     2.095    -0.034
                  5 K    (  0  0  0)     6.857     3.629     0.000
                  1 MN   ( -1  0  0)     7.918     4.190     0.000
                  2 F    (  0  1  0)     8.853     4.685     0.000
                  1 MN   ( -1 -1  0)    11.198     5.926     0.000
                  2 F    (  1  0  0)    11.877     6.285     0.000

 ATOM A   2 F    ATOM B     CELL      R(AB)/AU R(AB)/ANG    OVPOP(AB)
                  1 MN   (  0  0  0)     3.959     2.095    -0.034
                  3 F    (  0  0  0)     5.599     2.963    -0.001
                  5 K    (  0  0  0)     5.599     2.963     0.000
                  2 F    ( -1  0  0)     7.918     4.190     0.000
                  1 MN   (  0 -1  0)     8.853     4.685     0.000
                  3 F    (  0  0  1)     9.697     5.132     0.000

 ATOM A   5 K    ATOM B     CELL      R(AB)/AU R(AB)/ANG    OVPOP(AB)
                  2 F    (  0  0  0)     5.599     2.963     0.000
                  1 MN   (  0  0  0)     6.857     3.629     0.000
                  5 K    ( -1  0  0)     7.918     4.190     0.000
                  2 F    ( -1  0  0)     9.697     5.132     0.000
                  5 K    ( -1 -1  0)    11.198     5.926     0.000
                  2 F    (  0 -1  0)    12.519     6.625     0.000
 EIGENVECTORS IN FORTRAN UNIT  8
 TTTTTTTTTTTTTTTTTTTTTTTTTTTTTT END         TELAPSE       66.31 TCPU       66.02
 EEEEEEEEEE TERMINATION  DATE 03 12 2014 TIME 12:31:04.7
