
         
 *******************************************************************************
 *                                                                             *
 *                               CRYSTAL14                                     *
 *                      public : 1.0.2 - Feb 23rd, 2013                        *
 *                       HTTP://WWW.CRYSTAL.UNITO.IT                           *
 *                                                                             *
 *                              MAIN AUTHORS                                   *
 *                                                                             *
 *  R. DOVESI(1,11), V.R. SAUNDERS(2), C. ROETTI(1,11), R. ORLANDO(1,11),      *
 *  C.M. ZICOVICH-WILSON(1,3), F. PASCALE(4), B. CIVALLERI(1,11),              *
 *  K. DOLL(5), N.M. HARRISON(2,6), I. J. BUSH(7), Ph. D'ARCO(8),              *
 *  M. LLUNELL(9), M. CAUSA'(10), Y. NOEL(8)                                   *
 *                                                                             *
 *        CONTRIBUTIONS TO THE CURRENT RELEASE HAVE BEEN GIVEN BY              *
 *                                                                             *
 *  L. MASCHIO(1,11), S. CASASSA(1,11), A. ERBA(1,11), M. FERRABONE(1,11),     *
 *  M. DE LA PIERRE(1,11), M. FERRERO(1,11), V. LACIVITA(1,11),                *
 *  J. BAIMA(1,11), E. ALBANESE(1,11), M.F. PEINTINGER(12), R. BAST(13),       *
 *  M. RERAT(14), B. KIRTMAN(15), R. DEMICHELIS(1,16)                          *
 *                                                                             *
 * (1) THEORETICAL CHEMISTRY GROUP - UNIVERSITA' DI TORINO - TORINO (ITALY)    *
 *     http://www.crystal.unito.it                                             *
 * (2) COMPUTATIONAL SCIENCE & ENGINEERING DEPARTMENT - STFC DARESBURY (UK)    *
 *     http://www.stfc.ac.uk/CSE/randd/cmg/CRYSTAL/25806.aspx                  *
 * (3) UNIVERSIDAD AUTONOMA DEL ESTADO DE MORELOS - CUERNAVACA (MEXICO)        *
 * (4) UNIVERSITE' DE LORRAINE - NANCY (FRANCE)                                *
 * (5) UNIVERSITAET ULM - ULM (GERMANY); (6) IMPERIAL COLLEGE - LONDON (UK)    *
 * (7) NAG - OXFORD (UK); (8) UPMC - SORBONNE UNIVERSITES - PARIS (FRANCE)     *
 * (9) UNIVERSIDAD DE BARCELONA - BARCELONA (SPAIN)                            *
 *(10) UNIVERSITA' DI NAPOLI "FEDERICO II" - NAPOLI (ITALY)                    *
 *(11) NIS - NANOSTRUCTURED INTERFACES AND SURFACES - TORINO (ITALY)           *
 *(12) MPI FUER CHEMISCHE ENERGIEKONVERSION - MUELHEIM AN DER RUHR (GERMANY)   *
 *(13) UNIVERSITY OF STOCKHOLM - STOCKHOLM (SWEDEN)                            *
 *(14) UNIVERSITE' DE PAU ET DES PAYS DE L'ADOUR - PAU (FRANCE)                *
 *(15) UNIVERSITY OF CALIFORNIA SANTA BARBARA - SANTA BARBARA (USA)            *
 *(16) CURTIN UNIVERSITY - PERTH (AUSTRALIA)                                   *
 *                                                                             *
 ********************************************************************************
 EEEEEEEEEE STARTING  DATE 09 12 2014 TIME 10:33:13.9
 KCoF3 base all-electron ferro 4 4 4                                             

 CRYSTAL CALCULATION
 (INPUT ACCORDING TO THE INTERNATIONAL TABLES FOR X-RAY CRYSTALLOGRAPHY)
 CRYSTAL FAMILY                       :  CUBIC       
 CRYSTAL CLASS  (GROTH - 1921)        :  CUBIC HEXAKISOCTAHEDRAL              

 SPACE GROUP (CENTROSYMMETRIC)        :  P M 3 M         

 LATTICE PARAMETERS  (ANGSTROMS AND DEGREES) - CONVENTIONAL CELL
        A           B           C        ALPHA        BETA       GAMMA
     4.07100     4.07100     4.07100    90.00000    90.00000    90.00000


 NUMBER OF IRREDUCIBLE ATOMS IN THE CONVENTIONAL CELL:    3

 INPUT COORDINATES

 ATOM AT. N.              COORDINATES
   1  27     0.000000000000E+00  0.000000000000E+00  0.000000000000E+00
   2   9     5.000000000000E-01  0.000000000000E+00  0.000000000000E+00
   3  19     5.000000000000E-01  5.000000000000E-01  5.000000000000E-01

 *******************************************************************************

 << INFORMATION >>: FROM NOW ON, ALL COORDINATES REFER TO THE PRIMITIVE CELL

 *******************************************************************************

 LATTICE PARAMETERS  (ANGSTROMS AND DEGREES) - PRIMITIVE CELL
       A          B          C         ALPHA     BETA     GAMMA        VOLUME
    4.07100    4.07100    4.07100    90.00000  90.00000  90.00000     67.468850

 COORDINATES OF THE EQUIVALENT ATOMS (FRACTIONAL UNITS)

 N. ATOM EQUIV AT. N.          X                  Y                  Z

   1   1   1   27 CO    0.00000000000E+00  0.00000000000E+00  0.00000000000E+00

   2   2   1    9 F    -5.00000000000E-01  0.00000000000E+00  0.00000000000E+00
   3   2   2    9 F     0.00000000000E+00 -5.00000000000E-01  0.00000000000E+00
   4   2   3    9 F     0.00000000000E+00  0.00000000000E+00 -5.00000000000E-01

   5   3   1   19 K    -5.00000000000E-01 -5.00000000000E-01 -5.00000000000E-01

 NUMBER OF SYMMETRY OPERATORS         :   48
 *******************************************************************************
 * GEOMETRY EDITING - INPUT COORDINATES ARE GIVEN IN ANGSTROM         
 *******************************************************************************

 GEOMETRY NOW FULLY CONSISTENT WITH THE GROUP

 *******************************************************************************
 * CELL DEFORMATION
 *******************************************************************************

    ELASTIC STRAIN MATRIX (ADIMENSIONAL)

    1    0.0000000000    0.0000000000    0.0000000000
    2    0.0000000000    0.0000000000    0.0000000000
    3    0.0000000000    0.0000000000    0.0000000010

 LATTICE PARAMETERS (ANGSTROMS AND DEGREES) OF
 (1) ORIGINAL PRIMITIVE CELL
 (2) ORIGINAL CRYSTALLOGRAPHIC CELL
 (3) DEFORMED PRIMITIVE CELL
 (4) DEFORMED CRYSTALLOGRAPHIC CELL

            A           B           C        ALPHA       BETA        GAMMA         VOL
 (2)    4.071000    4.071000    4.071000   90.000000   90.000000   90.000000   67.468850
 (4)    4.071000    4.071000    4.071000   90.000000   90.000000   90.000000   67.468850

 * CELL DEFORMATION COMPLETE - NO. OF SYMMOPS  16

 GCALCO - MAX INDICES DIRECT LATTICE VECTOR    14    14    14
 NO.OF VECTORS CREATED 6999 STARS  147 RMAX    91.35021 BOHR

 GEOMETRY FOR WAVE FUNCTION - DIMENSIONALITY OF THE SYSTEM    3
 (NON PERIODIC DIRECTION: LATTICE PARAMETER FORMALLY SET TO 500)
 *******************************************************************************
 LATTICE PARAMETERS (ANGSTROMS AND DEGREES) - BOHR = 0.5291772083 ANGSTROM
 PRIMITIVE CELL - CENTRING CODE 1/1 VOLUME=    67.468850 - DENSITY  3.812 g/cm^3
         A              B              C           ALPHA      BETA       GAMMA 
     4.07100000     4.07100000     4.07100000    90.000000  90.000000  90.000000
 *******************************************************************************
 ATOMS IN THE ASYMMETRIC UNIT    4 - ATOMS IN THE UNIT CELL:    5
     ATOM              X/A                 Y/B                 Z/C    
 *******************************************************************************
   1 T  27 CO    0.000000000000E+00  0.000000000000E+00  0.000000000000E+00
   2 T   9 F    -5.000000000000E-01  0.000000000000E+00  0.000000000000E+00
   3 F   9 F     0.000000000000E+00 -5.000000000000E-01  0.000000000000E+00
   4 T   9 F     0.000000000000E+00  0.000000000000E+00 -5.000000000000E-01
   5 T  19 K    -5.000000000000E-01 -5.000000000000E-01 -5.000000000000E-01

 T = ATOM BELONGING TO THE ASYMMETRIC UNIT

 ****   16 SYMMOPS - TRANSLATORS IN FRACTIONAL UNITS
 **** MATRICES AND TRANSLATORS IN THE CRYSTALLOGRAPHIC REFERENCE FRAME
   V INV                    ROTATION MATRICES                   TRANSLATORS
   1   1  1.00  0.00  0.00  0.00  1.00  0.00  0.00  0.00  1.00  0.00  0.00  0.00
   2   2 -1.00  0.00  0.00  0.00 -1.00  0.00  0.00  0.00  1.00  0.00  0.00  0.00
   3   3  1.00  0.00  0.00  0.00 -1.00  0.00  0.00  0.00 -1.00  0.00  0.00  0.00
   4   4 -1.00  0.00  0.00  0.00  1.00  0.00  0.00  0.00 -1.00  0.00  0.00  0.00
   5   5  0.00 -1.00  0.00 -1.00  0.00  0.00  0.00  0.00 -1.00  0.00  0.00  0.00
   6   6  0.00  1.00  0.00  1.00  0.00  0.00  0.00  0.00 -1.00  0.00  0.00  0.00
   7   8  0.00  1.00  0.00 -1.00  0.00  0.00  0.00  0.00  1.00  0.00  0.00  0.00
   8   7  0.00 -1.00  0.00  1.00  0.00  0.00  0.00  0.00  1.00  0.00  0.00  0.00
   9   9 -1.00  0.00  0.00  0.00 -1.00  0.00  0.00  0.00 -1.00  0.00  0.00  0.00
  10  10  1.00  0.00  0.00  0.00  1.00  0.00  0.00  0.00 -1.00  0.00  0.00  0.00
  11  11 -1.00  0.00  0.00  0.00  1.00  0.00  0.00  0.00  1.00  0.00  0.00  0.00
  12  12  1.00  0.00  0.00  0.00 -1.00  0.00  0.00  0.00  1.00  0.00  0.00  0.00
  13  13  0.00  1.00  0.00  1.00  0.00  0.00  0.00  0.00  1.00  0.00  0.00  0.00
  14  14  0.00 -1.00  0.00 -1.00  0.00  0.00  0.00  0.00  1.00  0.00  0.00  0.00
  15  16  0.00 -1.00  0.00  1.00  0.00  0.00  0.00  0.00 -1.00  0.00  0.00  0.00
  16  15  0.00  1.00  0.00 -1.00  0.00  0.00  0.00  0.00 -1.00  0.00  0.00  0.00

 DIRECT LATTICE VECTORS CARTESIAN COMPONENTS (ANGSTROM)
          X                    Y                    Z
   0.407100000000E+01   0.000000000000E+00   0.000000000000E+00
   0.000000000000E+00   0.407100000000E+01   0.000000000000E+00
   0.000000000000E+00   0.000000000000E+00   0.407100000407E+01


 CARTESIAN COORDINATES - PRIMITIVE CELL
 *******************************************************************************
 *      ATOM          X(ANGSTROM)         Y(ANGSTROM)         Z(ANGSTROM)
 *******************************************************************************
    1    27 CO    0.000000000000E+00  0.000000000000E+00  0.000000000000E+00
    2     9 F     2.035500000000E+00  0.000000000000E+00  0.000000000000E+00
    3     9 F     0.000000000000E+00  2.035500000000E+00  0.000000000000E+00
    4     9 F     0.000000000000E+00  0.000000000000E+00  2.035500002036E+00
    5    19 K     2.035500000000E+00  2.035500000000E+00  2.035500002036E+00

 *******************************************************************************
 LOCAL ATOMIC FUNCTIONS BASIS SET
 *******************************************************************************
   ATOM   X(AU)   Y(AU)   Z(AU)  N. TYPE  EXPONENT  S COEF   P COEF   D/F/G COEF
 *******************************************************************************
   1 CO   0.000   0.000   0.000
                                  1 S  
                                         3.417E+05 2.270E-04 0.000E+00 0.000E+00
                                         4.885E+04 1.929E-03 0.000E+00 0.000E+00
                                         1.040E+04 1.110E-02 0.000E+00 0.000E+00
                                         2.719E+03 5.010E-02 0.000E+00 0.000E+00
                                         8.197E+02 1.705E-01 0.000E+00 0.000E+00
                                         2.839E+02 3.692E-01 0.000E+00 0.000E+00
                                         1.110E+02 4.033E-01 0.000E+00 0.000E+00
                                         4.648E+01 1.433E-01 0.000E+00 0.000E+00
                             2-   5 SP 
                                         8.556E+02-5.400E-03 8.800E-03 0.000E+00
                                         2.065E+02-6.840E-02 6.200E-02 0.000E+00
                                         6.905E+01-1.316E-01 2.165E-01 0.000E+00
                                         2.727E+01 2.616E-01 4.095E-01 0.000E+00
                                         1.154E+01 6.287E-01 3.932E-01 0.000E+00
                                         4.202E+00 2.706E-01 2.250E-01 0.000E+00
                             6-   9 SP 
                                         5.155E+01 1.820E-02-2.870E-02 0.000E+00
                                         1.891E+01-2.432E-01-9.370E-02 0.000E+00
                                         7.725E+00-8.490E-01 2.036E-01 0.000E+00
                                         3.543E+00 8.264E-01 1.419E+00 0.000E+00
                            10-  13 SP 
                                         1.491E+00 1.000E+00 1.000E+00 0.000E+00
                            14-  17 SP 
                                         6.031E-01 1.000E+00 1.000E+00 0.000E+00
                            18-  22 D  
                                         2.990E+01 0.000E+00 0.000E+00 6.170E-02
                                         8.116E+00 0.000E+00 0.000E+00 2.835E-01
                                         2.643E+00 0.000E+00 0.000E+00 5.290E-01
                                         8.869E-01 0.000E+00 0.000E+00 4.976E-01
                            23-  27 D  
                                         3.011E-01 0.000E+00 0.000E+00 1.000E+00
   2 F    3.847   0.000   0.000
                                 28 S  
                                         1.377E+04 8.770E-04 0.000E+00 0.000E+00
                                         1.590E+03 9.150E-03 0.000E+00 0.000E+00
                                         3.265E+02 4.860E-02 0.000E+00 0.000E+00
                                         9.166E+01 1.691E-01 0.000E+00 0.000E+00
                                         3.046E+01 3.708E-01 0.000E+00 0.000E+00
                                         1.150E+01 4.165E-01 0.000E+00 0.000E+00
                                         4.760E+00 1.306E-01 0.000E+00 0.000E+00
                            29-  32 SP 
                                         1.900E+01-1.094E-01 1.244E-01 0.000E+00
                                         4.530E+00-1.289E-01 5.323E-01 0.000E+00
                                         1.387E+00 1.000E+00 1.000E+00 0.000E+00
                            33-  36 SP 
                                         4.400E-01 1.000E+00 1.000E+00 0.000E+00
                            37-  40 SP 
                                         1.790E-01 1.000E+00 1.000E+00 0.000E+00
   3 F    0.000   3.847   0.000
   4 F    0.000   0.000   3.847
   5 K    3.847   3.847   3.847
                                 67 S  
                                         1.725E+05 2.200E-04 0.000E+00 0.000E+00
                                         2.432E+04 1.920E-03 0.000E+00 0.000E+00
                                         5.140E+03 1.109E-02 0.000E+00 0.000E+00
                                         1.344E+03 4.992E-02 0.000E+00 0.000E+00
                                         4.045E+02 1.702E-01 0.000E+00 0.000E+00
                                         1.394E+02 3.679E-01 0.000E+00 0.000E+00
                                         5.439E+01 4.036E-01 0.000E+00 0.000E+00
                                         2.271E+01 1.459E-01 0.000E+00 0.000E+00
                            68-  71 SP 
                                         4.020E+02-6.030E-03 8.410E-03 0.000E+00
                                         9.350E+01-8.050E-02 6.020E-02 0.000E+00
                                         3.075E+01-1.094E-01 2.117E-01 0.000E+00
                                         1.192E+01 2.580E-01 3.726E-01 0.000E+00
                                         5.167E+00 6.840E-01 4.022E-01 0.000E+00
                                         1.582E+00 3.990E-01 1.860E-01 0.000E+00
                            72-  75 SP 
                                         1.735E+01-7.400E-03-3.210E-02 0.000E+00
                                         7.550E+00-1.290E-01-6.200E-02 0.000E+00
                                         2.939E+00-6.834E-01 1.691E-01 0.000E+00
                                         1.190E+00 1.080E+00 1.500E+00 0.000E+00
                                         6.740E-01 1.030E+00 1.060E+00 0.000E+00
                            76-  79 SP 
                                         3.890E-01 1.000E+00 1.000E+00 0.000E+00
                            80-  83 SP 
                                         2.160E-01 1.000E+00 1.000E+00 0.000E+00
 INFORMATION **** SET_MPP **** PCRYSTAL CALCULATION
 INFORMATION **** READM2 **** NEW DEFAULT: FOCK/KS MATRIX MIXING SET TO 30 %
 INFORMATION **** READM2 **** NEW DEFAULT: FULL DIRECT SCF MODE
 INFORMATION **** READM2 **** NEW DEFAULT: COULOMB BIPOLAR BUFFER SET TO 32 Mb
 INFORMATION **** READM2 **** NEW DEFAULT: EXCHANGE BIPOLAR BUFFER SET TO 32 Mb
 INFORMATION **** UHF **** SPIN POLARIZED SOLUTIONS ALLOWED
 INFORMATION **** TOLINTEG **** COULOMB AND EXCHANGE SERIES TOLERANCES MODIFIED
 INFORMATION **** TOLDEE **** SCF TOL ON TOTAL ENERGY SET TO           7
 INFORMATION **** SPINLOCK **** LOCK IN A GIVEN SPIN STATE
 ALPHA-BETA ELECTRONS LOCKED TO   3 FOR  30 SCF CYCLES
 INFORMATION **** LEVSHIFT **** LEVEL SHIFTER ACTIVE


 *******************************************************************************
 * FOCK MATRIX DIAGONAL ELEMENT SHIFT (A.U.)
 *******************************************************************************
    ATOM   SHELL   A.O.      SHIFT(ALPHA)    SHIFT(BETA)
      1      6      5         0.000E+00       3.000E-01
 INFORMATION **** MULPOPAN ****  MULLIKEN POPULATION ANALYSIS AT THE END OF SCF
 INFORMATION **** MAXCYCLE **** MAX NUMBER OF SCF CYCLES SET TO         100
 *******************************************************************************
 N. OF ATOMS PER CELL         5  COULOMB OVERLAP TOL         (T1) 10**   -7
 NUMBER OF SHELLS            24  COULOMB PENETRATION TOL     (T2) 10**   -7
 NUMBER OF AO                83  EXCHANGE OVERLAP TOL        (T3) 10**   -7
 N. OF ELECTRONS PER CELL    73  EXCHANGE PSEUDO OVP (F(G))  (T4) 10**   -7
 CORE ELECTRONS PER CELL     42  EXCHANGE PSEUDO OVP (P(G))  (T5) 10**  -14
 N. OF SYMMETRY OPERATORS    16  POLE ORDER IN MONO ZONE                  4
 *******************************************************************************
 TYPE OF CALCULATION :  UNRESTRICTED OPEN SHELL
 HARTREE-FOCK HAMILTONIAN
 EIGENVALUE LEVEL SHIFTING OF  0.300 HARTREE
 LOCKING - FERMI ENERGY ALTERED BY LEVEL SHIFTER
 SPIN POLARIZATION - ALPHA-BETA =  3 FOR  30 CYCLES

 CAPPA:IS1  8;IS2  8;IS3  8; K PTS MONK NET  75; SYMMOPS:K SPACE  16;G SPACE  16

 *******************************************************************************
 MAX NUMBER OF SCF CYCLES     100  CONVERGENCE ON DELTAP        10**-17
 WEIGHT OF F(I) IN F(I+1)      30% CONVERGENCE ON ENERGY        10**- 7
 EIGENVALUE LEVEL SHIFTING OF  0.300 HARTREE
 LOCKING - FERMI ENERGY ALTERED BY LEVEL SHIFTER
 SPIN POLARIZATION - ALPHA-BETA =  3 FOR  30 CYCLES
 SHRINK. FACT.(MONKH.)    8  8  8  NUMBER OF K POINTS IN THE IBZ     75
 SHRINKING FACTOR(GILAT NET)    8  NUMBER OF K POINTS(GILAT NET)     75
 *******************************************************************************
 *** K POINTS COORDINATES (OBLIQUE COORDINATES IN UNITS OF IS =  8)
   1-R(  0  0  0)   2-C(  1  0  0)   3-C(  2  0  0)   4-C(  3  0  0)
   5-R(  4  0  0)   6-C(  1  1  0)   7-C(  2  1  0)   8-C(  3  1  0)
   9-C(  4  1  0)  10-C(  2  2  0)  11-C(  3  2  0)  12-C(  4  2  0)
  13-C(  3  3  0)  14-C(  4  3  0)  15-R(  4  4  0)  16-C(  0  0  1)
  17-C(  1  0  1)  18-C(  2  0  1)  19-C(  3  0  1)  20-C(  4  0  1)
  21-C(  1  1  1)  22-C(  2  1  1)  23-C(  3  1  1)  24-C(  4  1  1)
  25-C(  2  2  1)  26-C(  3  2  1)  27-C(  4  2  1)  28-C(  3  3  1)
  29-C(  4  3  1)  30-C(  4  4  1)  31-C(  0  0  2)  32-C(  1  0  2)
  33-C(  2  0  2)  34-C(  3  0  2)  35-C(  4  0  2)  36-C(  1  1  2)
  37-C(  2  1  2)  38-C(  3  1  2)  39-C(  4  1  2)  40-C(  2  2  2)
  41-C(  3  2  2)  42-C(  4  2  2)  43-C(  3  3  2)  44-C(  4  3  2)
  45-C(  4  4  2)  46-C(  0  0  3)  47-C(  1  0  3)  48-C(  2  0  3)
  49-C(  3  0  3)  50-C(  4  0  3)  51-C(  1  1  3)  52-C(  2  1  3)
  53-C(  3  1  3)  54-C(  4  1  3)  55-C(  2  2  3)  56-C(  3  2  3)
  57-C(  4  2  3)  58-C(  3  3  3)  59-C(  4  3  3)  60-C(  4  4  3)
  61-R(  0  0  4)  62-C(  1  0  4)  63-C(  2  0  4)  64-C(  3  0  4)
  65-R(  4  0  4)  66-C(  1  1  4)  67-C(  2  1  4)  68-C(  3  1  4)
  69-C(  4  1  4)  70-C(  2  2  4)  71-C(  3  2  4)  72-C(  4  2  4)
  73-C(  3  3  4)  74-C(  4  3  4)  75-R(  4  4  4)

 DIRECT LATTICE VECTORS COMPON. (A.U.)     RECIP. LATTICE VECTORS COMPON. (A.U.) 
        X            Y            Z              X            Y            Z
    7.6930751    0.0000000    0.0000000      0.8167326    0.0000000    0.0000000
    0.0000000    7.6930751    0.0000000      0.0000000    0.8167326    0.0000000
    0.0000000    0.0000000    7.6930751      0.0000000    0.0000000    0.8167326

 DISK SPACE FOR EIGENVECTORS (FTN 10)      992016 REALS

 SYMMETRY ADAPTION OF THE BLOCH FUNCTIONS ENABLED

 MATRIX SIZE: P(G)  110685, F(G)   20264, P(G) IRR    8702, F(G) IRR    4138
 MAX G-VECTOR INDEX FOR 1- AND 2-ELECTRON INTEGRALS 119

 TTTTTTTTTTTTTTTTTTTTTTTTTTTTTT INPUT       TELAPSE        0.01 TCPU        0.01

 NEIGHBORS OF THE NON-EQUIVALENT ATOMS

 N = NUMBER OF NEIGHBORS AT DISTANCE R
    ATOM  N     R/ANG      R/AU   NEIGHBORS (ATOM LABELS AND CELL INDICES)
   1 CO   6     2.0355     3.8465    2 F    0 0 0    2 F   -1 0 0    3 F    0-1 0
                                     3 F    0 0 0    4 F    0 0 0    4 F    0 0-1
   1 CO   8     3.5256     6.6624    5 K    0 0 0    5 K   -1 0 0    5 K    0-1 0
                                     5 K    0 0-1    5 K   -1-1 0    5 K   -1 0-1
                                     5 K    0-1-1    5 K   -1-1-1
   1 CO   4     4.0710     7.6931    1 CO  -1 0 0    1 CO   1 0 0    1 CO   0-1 0
                                     1 CO   0 1 0
   1 CO   2     4.0710     7.6931    1 CO   0 0-1    1 CO   0 0 1
   1 CO  16     4.5515     8.6011    2 F    0 1 0    2 F    0-1 0    2 F   -1-1 0
                                     2 F   -1 1 0    3 F   -1-1 0    3 F    1-1 0
                                     3 F    1 0 0    3 F   -1 0 0    4 F    1 0 0
                                     4 F   -1 0 0    4 F    0 1 0    4 F    0-1 0
                                     4 F   -1 0-1    4 F    1 0-1    4 F    0-1-1
                                     4 F    0 1-1
   1 CO   8     4.5515     8.6011    2 F    0 0 1    2 F    0 0-1    2 F   -1 0-1
                                     2 F   -1 0 1    3 F    0-1-1    3 F    0-1 1
                                     3 F    0 0 1    3 F    0 0-1

   2 F    2     2.0355     3.8465    1 CO   0 0 0    1 CO   1 0 0
   2 F    8     2.8786     5.4398    3 F    0 0 0    3 F    1 0 0    3 F    0-1 0
                                     3 F    1-1 0    4 F    0 0 0    4 F    1 0 0
                                     4 F    0 0-1    4 F    1 0-1
   2 F    4     2.8786     5.4398    5 K    0 0 0    5 K    0-1 0    5 K    0 0-1
                                     5 K    0-1-1
   2 F    4     4.0710     7.6931    2 F   -1 0 0    2 F    1 0 0    2 F    0-1 0
                                     2 F    0 1 0
   2 F    2     4.0710     7.6931    2 F    0 0-1    2 F    0 0 1
   2 F    4     4.5515     8.6011    1 CO   0-1 0    1 CO   0 1 0    1 CO   1 1 0
                                     1 CO   1-1 0

   4 F    2     2.0355     3.8465    1 CO   0 0 0    1 CO   0 0 1
   4 F    4     2.8786     5.4398    5 K    0 0 0    5 K   -1 0 0    5 K    0-1 0
                                     5 K   -1-1 0
   4 F    8     2.8786     5.4398    2 F    0 0 0    2 F   -1 0 0    2 F    0 0 1
                                     2 F   -1 0 1    3 F    0-1 1    3 F    0 0 1
                                     3 F    0-1 0    3 F    0 0 0
   4 F    4     4.0710     7.6931    4 F   -1 0 0    4 F    1 0 0    4 F    0-1 0
                                     4 F    0 1 0
   4 F    2     4.0710     7.6931    4 F    0 0-1    4 F    0 0 1
   4 F    8     4.5515     8.6011    1 CO  -1 0 0    1 CO   1 0 0    1 CO   0-1 0
                                     1 CO   0 1 0    1 CO   1 0 1    1 CO  -1 0 1
                                     1 CO   0 1 1    1 CO   0-1 1

   5 K   12     2.8786     5.4398    4 F    0 0 0    4 F    1 0 0    4 F    0 1 0
                                     4 F    1 1 0    2 F    0 0 0    2 F    0 1 0
                                     2 F    0 0 1    2 F    0 1 1    3 F    1 0 1
                                     3 F    0 0 1    3 F    1 0 0    3 F    0 0 0
   5 K    8     3.5256     6.6624    1 CO   0 0 0    1 CO   1 0 0    1 CO   0 1 0
                                     1 CO   0 0 1    1 CO   1 1 0    1 CO   1 0 1
                                     1 CO   0 1 1    1 CO   1 1 1
   5 K    4     4.0710     7.6931    5 K   -1 0 0    5 K    1 0 0    5 K    0-1 0
                                     5 K    0 1 0
   5 K    2     4.0710     7.6931    5 K    0 0-1    5 K    0 0 1
   5 K   24     4.9859     9.4221    2 F   -1 0 0    2 F    1 0 0    2 F    1 1 0
                                     2 F    1 0 1    2 F   -1 0 1    2 F   -1 1 0
                                     2 F    1 1 1    2 F   -1 1 1    3 F    1 1 1
                                     3 F    1-1 1    3 F    0-1 1    3 F    1-1 0
                                     3 F    1 1 0    3 F    0 1 1    3 F    0-1 0
                                     3 F    0 1 0    4 F    0 0-1    4 F    0 0 1
                                     4 F    1 0 1    4 F    1 0-1    4 F    0 1 1
                                     4 F    0 1-1    4 F    1 1 1    4 F    1 1-1
   5 K    4     5.7573    10.8797    5 K   -1-1 0    5 K    1 1 0    5 K   -1 1 0
                                     5 K    1-1 0


 THERE ARE NO SYMMETRY ALLOWED DIRECTIONS
 TTTTTTTTTTTTTTTTTTTTTTTTTTTTTT SYMM        TELAPSE        0.02 TCPU        0.02
 TTTTTTTTTTTTTTTTTTTTTTTTTTTTTT INT_SCREEN  TELAPSE        0.02 TCPU        0.02
 INFORMATION **** EXCBUF **** EXCH. BIPO BUFFER: WORDS USED =      439983
 TTTTTTTTTTTTTTTTTTTTTTTTTTTTTT INT_CALC    TELAPSE        0.04 TCPU        0.04
 EEEEEEEEEE INT_CALC TERMINATION  DATE 09 12 2014 TIME 10:33:13.9

 *******************************************************************************
 KCoF3 base all-electron ferro 4 4 4                                             
 CRYSTAL - SCF - TYPE OF CALCULATION :  UNRESTRICTED OPEN SHELL
 *******************************************************************************

 CAPPA:IS1  8;IS2  8;IS3  8; K PTS MONK NET  75; SYMMOPS:K SPACE  16;G SPACE  16

 TTTTTTTTTTTTTTTTTTTTTTTTTTTTTT SDIK        TELAPSE        0.12 TCPU        0.12

 AAAAAAAAAAAAAAAAAAAAAAAAAAAAAAAAAAAAAAAAAAAAAAAAAAAAAAAAAAAAAAAAAAAAAAAAAAAAAAA
         ATOMIC WAVEFUNCTION(S)


 NUCLEAR CHARGE 27.0  SYMMETRY SPECIES            S    P    D
 N. ELECTRONS   25.0  NUMBER OF PRIMITIVE GTOS   20   12    5
                      NUMBER OF CONTRACTED GTOS   5    4    2
                      NUMBER OF CLOSED SHELLS     3    2    0
                      OPEN SHELL OCCUPATION       0    0    7

  ZNUC SCFIT  TOTAL HF ENERGY   KINETIC ENERGY   VIRIAL THEOREM ACCURACY
  27.0  18   -1.380502477E+03  1.380054440E+03 -2.000324651E+00  4.9E-06

 NUCLEAR CHARGE  9.0  SYMMETRY SPECIES            S    P
 N. ELECTRONS   10.0  NUMBER OF PRIMITIVE GTOS   12    5
                      NUMBER OF CONTRACTED GTOS   4    3
                      NUMBER OF CLOSED SHELLS     2    1
                      OPEN SHELL OCCUPATION       0    0

  ZNUC SCFIT  TOTAL HF ENERGY   KINETIC ENERGY   VIRIAL THEOREM ACCURACY
   9.0  28   -9.941465138E+01  9.937084613E+01 -2.000440826E+00  3.8E-06

 NUCLEAR CHARGE 19.0  SYMMETRY SPECIES            S    P
 N. ELECTRONS   18.0  NUMBER OF PRIMITIVE GTOS   21   13
                      NUMBER OF CONTRACTED GTOS   5    4
                      NUMBER OF CLOSED SHELLS     3    2
                      OPEN SHELL OCCUPATION       0    0

  ZNUC SCFIT  TOTAL HF ENERGY   KINETIC ENERGY   VIRIAL THEOREM ACCURACY
  19.0   8   -5.989803225E+02  5.986852286E+02 -2.000492903E+00  1.3E-06

 AAAAAAAAAAAAAAAAAAAAAAAAAAAAAAAAAAAAAAAAAAAAAAAAAAAAAAAAAAAAAAAAAAAAAAAAAAAAAAA

 CHARGE NORMALIZATION FACTOR   1.00000000
 TOTAL ATOMIC CHARGES:
  25.0000000  10.0000000  10.0000000  10.0000000  18.0000000
 SUMMED SPIN DENSITY           0.00000000
 TOTAL ATOMIC SPINS  :
   0.0000000   0.0000000   0.0000000   0.0000000   0.0000000
 TTTTTTTTTTTTTTTTTTTTTTTTTTTTTT MOQGAD      TELAPSE        0.14 TCPU        0.14
 TTTTTTTTTTTTTTTTTTTTTTTTTTTTTT SHELLX2     TELAPSE        5.94 TCPU        5.94
 TTTTTTTTTTTTTTTTTTTTTTTTTTTTTT MONMO3      TELAPSE        6.00 TCPU        6.00
 CYC   0 ETOT(AU) -2.278723430008E+03 DETOT -2.28E+03 tst  0.00E+00 PX  1.00E+00
 TTTTTTTTTTTTTTTTTTTTTTTTTTTTTT FDIK        TELAPSE        6.39 TCPU        6.39

    ALPHA      ELECTRONS
 INSULATING STATE - LEVEL SHIFTER    0.30 au
 TOP OF VALENCE BANDS -    BAND     38; K    1; EIG -1.0000000E+00 AU
 BOTTOM OF VIRTUAL BANDS - BAND     39; K    1; EIG  1.0000000E+00 AU

    BETA       ELECTRONS
 INSULATING STATE - LEVEL SHIFTER    0.30 au
 TOP OF VALENCE BANDS -    BAND     35; K    1; EIG -1.0000000E+00 AU
 BOTTOM OF VIRTUAL BANDS - BAND     36; K    1; EIG  1.0000000E+00 AU
 TTTTTTTTTTTTTTTTTTTTTTTTTTTTTT PDIG        TELAPSE        6.44 TCPU        6.44
 CHARGE NORMALIZATION FACTOR   1.00000000
 TOTAL ATOMIC CHARGES:
  25.3770100   9.8706076   9.8706076   9.8831396  17.9986353
 SUMMED SPIN DENSITY           3.00000000
 TOTAL ATOMIC SPINS  :
   2.7214444   0.0971084   0.0971084   0.0845764  -0.0002376
 TTTTTTTTTTTTTTTTTTTTTTTTTTTTTT MOQGAD      TELAPSE        6.45 TCPU        6.46
 TTTTTTTTTTTTTTTTTTTTTTTTTTTTTT SHELLX2     TELAPSE       12.63 TCPU       12.64
 TTTTTTTTTTTTTTTTTTTTTTTTTTTTTT MONMO3      TELAPSE       12.69 TCPU       12.70
 CYC   1 ETOT(AU) -2.279057987381E+03 DETOT -3.35E-01 tst  0.00E+00 PX  1.00E+00
 TTTTTTTTTTTTTTTTTTTTTTTTTTTTTT FDIK        TELAPSE       12.88 TCPU       12.89

    ALPHA      ELECTRONS
 INSULATING STATE - LEVEL SHIFTER    0.30 au
 TOP OF VALENCE BANDS -    BAND     38; K    1; EIG -1.0000000E+00 AU
 BOTTOM OF VIRTUAL BANDS - BAND     39; K    1; EIG  1.0000000E+00 AU

    BETA       ELECTRONS
 INSULATING STATE - LEVEL SHIFTER    0.30 au
 TOP OF VALENCE BANDS -    BAND     35; K    1; EIG -1.0000000E+00 AU
 BOTTOM OF VIRTUAL BANDS - BAND     36; K    1; EIG  1.0000000E+00 AU
 TTTTTTTTTTTTTTTTTTTTTTTTTTTTTT PDIG        TELAPSE       12.93 TCPU       12.94
 CHARGE NORMALIZATION FACTOR   1.00000000
 TOTAL ATOMIC CHARGES:
  25.2893548   9.9002999   9.9002999   9.9108446  17.9992007
 SUMMED SPIN DENSITY           3.00000000
 TOTAL ATOMIC SPINS  :
   2.8090743   0.0674736   0.0674736   0.0564623  -0.0004838
 TTTTTTTTTTTTTTTTTTTTTTTTTTTTTT MOQGAD      TELAPSE       12.95 TCPU       12.95
 TTTTTTTTTTTTTTTTTTTTTTTTTTTTTT SHELLX2     TELAPSE       19.21 TCPU       19.22
 TTTTTTTTTTTTTTTTTTTTTTTTTTTTTT MONMO3      TELAPSE       19.28 TCPU       19.29
 CYC   2 ETOT(AU) -2.279113628677E+03 DETOT -5.56E-02 tst  1.62E-02 PX  6.99E-02
 TTTTTTTTTTTTTTTTTTTTTTTTTTTTTT FDIK        TELAPSE       19.47 TCPU       19.48

    ALPHA      ELECTRONS
 INSULATING STATE - LEVEL SHIFTER    0.30 au
 TOP OF VALENCE BANDS -    BAND     38; K    1; EIG -1.0000000E+00 AU
 BOTTOM OF VIRTUAL BANDS - BAND     39; K    1; EIG  1.0000000E+00 AU

    BETA       ELECTRONS
 INSULATING STATE - LEVEL SHIFTER    0.30 au
 TOP OF VALENCE BANDS -    BAND     35; K    1; EIG -1.0000000E+00 AU
 BOTTOM OF VIRTUAL BANDS - BAND     36; K    1; EIG  1.0000000E+00 AU
 TTTTTTTTTTTTTTTTTTTTTTTTTTTTTT PDIG        TELAPSE       19.52 TCPU       19.53
 CHARGE NORMALIZATION FACTOR   1.00000000
 TOTAL ATOMIC CHARGES:
  25.2385196   9.9176531   9.9176531   9.9269618  17.9992125
 SUMMED SPIN DENSITY           3.00000000
 TOTAL ATOMIC SPINS  :
   2.8640452   0.0485811   0.0485811   0.0392665  -0.0004739
 TTTTTTTTTTTTTTTTTTTTTTTTTTTTTT MOQGAD      TELAPSE       19.54 TCPU       19.55
 TTTTTTTTTTTTTTTTTTTTTTTTTTTTTT SHELLX2     TELAPSE       25.90 TCPU       25.91
 TTTTTTTTTTTTTTTTTTTTTTTTTTTTTT MONMO3      TELAPSE       25.96 TCPU       25.97
 CYC   3 ETOT(AU) -2.279132126447E+03 DETOT -1.85E-02 tst  7.56E-03 PX  3.25E-02
 TTTTTTTTTTTTTTTTTTTTTTTTTTTTTT FDIK        TELAPSE       26.16 TCPU       26.17

    ALPHA      ELECTRONS
 INSULATING STATE - LEVEL SHIFTER    0.30 au
 TOP OF VALENCE BANDS -    BAND     38; K    1; EIG -1.0000000E+00 AU
 BOTTOM OF VIRTUAL BANDS - BAND     39; K    1; EIG  1.0000000E+00 AU

    BETA       ELECTRONS
 INSULATING STATE - LEVEL SHIFTER    0.30 au
 TOP OF VALENCE BANDS -    BAND     35; K    1; EIG -1.0000000E+00 AU
 BOTTOM OF VIRTUAL BANDS - BAND     36; K    1; EIG  1.0000000E+00 AU
 TTTTTTTTTTTTTTTTTTTTTTTTTTTTTT PDIG        TELAPSE       26.21 TCPU       26.22
 CHARGE NORMALIZATION FACTOR   1.00000000
 TOTAL ATOMIC CHARGES:
  25.2126913   9.9265791   9.9265791   9.9351727  17.9989779
 SUMMED SPIN DENSITY           3.00000000
 TOTAL ATOMIC SPINS  :
   2.8937182   0.0383308   0.0383308   0.0300885  -0.0004683
 TTTTTTTTTTTTTTTTTTTTTTTTTTTTTT MOQGAD      TELAPSE       26.22 TCPU       26.24
 TTTTTTTTTTTTTTTTTTTTTTTTTTTTTT SHELLX2     TELAPSE       32.48 TCPU       32.50
 TTTTTTTTTTTTTTTTTTTTTTTTTTTTTT MONMO3      TELAPSE       32.54 TCPU       32.56
 CYC   4 ETOT(AU) -2.279137831082E+03 DETOT -5.70E-03 tst  2.40E-03 PX  1.54E-02
 TTTTTTTTTTTTTTTTTTTTTTTTTTTTTT FDIK        TELAPSE       32.74 TCPU       32.76

    ALPHA      ELECTRONS
 INSULATING STATE - LEVEL SHIFTER    0.30 au
 TOP OF VALENCE BANDS -    BAND     38; K    1; EIG -1.0000000E+00 AU
 BOTTOM OF VIRTUAL BANDS - BAND     39; K    1; EIG  1.0000000E+00 AU

    BETA       ELECTRONS
 INSULATING STATE - LEVEL SHIFTER    0.30 au
 TOP OF VALENCE BANDS -    BAND     35; K    1; EIG -1.0000000E+00 AU
 BOTTOM OF VIRTUAL BANDS - BAND     36; K    1; EIG  1.0000000E+00 AU
 TTTTTTTTTTTTTTTTTTTTTTTTTTTTTT PDIG        TELAPSE       32.79 TCPU       32.81
 CHARGE NORMALIZATION FACTOR   1.00000000
 TOTAL ATOMIC CHARGES:
  25.1989273   9.9314037   9.9314037   9.9395046  17.9987606
 SUMMED SPIN DENSITY           3.00000000
 TOTAL ATOMIC SPINS  :
   2.9102833   0.0325663   0.0325663   0.0250134  -0.0004294
 TTTTTTTTTTTTTTTTTTTTTTTTTTTTTT MOQGAD      TELAPSE       32.80 TCPU       32.82
 TTTTTTTTTTTTTTTTTTTTTTTTTTTTTT SHELLX2     TELAPSE       38.99 TCPU       39.01
 TTTTTTTTTTTTTTTTTTTTTTTTTTTTTT MONMO3      TELAPSE       39.05 TCPU       39.07
 CYC   5 ETOT(AU) -2.279139640378E+03 DETOT -1.81E-03 tst  7.59E-04 PX  7.76E-03
 TTTTTTTTTTTTTTTTTTTTTTTTTTTTTT FDIK        TELAPSE       39.24 TCPU       39.27

    ALPHA      ELECTRONS
 INSULATING STATE - LEVEL SHIFTER    0.30 au
 TOP OF VALENCE BANDS -    BAND     38; K    1; EIG -1.0000000E+00 AU
 BOTTOM OF VIRTUAL BANDS - BAND     39; K    1; EIG  1.0000000E+00 AU

    BETA       ELECTRONS
 INSULATING STATE - LEVEL SHIFTER    0.30 au
 TOP OF VALENCE BANDS -    BAND     35; K    1; EIG -1.0000000E+00 AU
 BOTTOM OF VIRTUAL BANDS - BAND     36; K    1; EIG  1.0000000E+00 AU
 TTTTTTTTTTTTTTTTTTTTTTTTTTTTTT PDIG        TELAPSE       39.29 TCPU       39.31
 CHARGE NORMALIZATION FACTOR   1.00000000
 TOTAL ATOMIC CHARGES:
  25.1912377   9.9341174   9.9341174   9.9419194  17.9986081
 SUMMED SPIN DENSITY           3.00000000
 TOTAL ATOMIC SPINS  :
   2.9198252   0.0292355   0.0292355   0.0221221  -0.0004183
 TTTTTTTTTTTTTTTTTTTTTTTTTTTTTT MOQGAD      TELAPSE       39.31 TCPU       39.33
 TTTTTTTTTTTTTTTTTTTTTTTTTTTTTT SHELLX2     TELAPSE       45.49 TCPU       45.51
 TTTTTTTTTTTTTTTTTTTTTTTTTTTTTT MONMO3      TELAPSE       45.55 TCPU       45.57
 CYC   6 ETOT(AU) -2.279140241153E+03 DETOT -6.01E-04 tst  2.58E-04 PX  4.08E-03
 TTTTTTTTTTTTTTTTTTTTTTTTTTTTTT FDIK        TELAPSE       45.74 TCPU       45.77

    ALPHA      ELECTRONS
 INSULATING STATE - LEVEL SHIFTER    0.30 au
 TOP OF VALENCE BANDS -    BAND     38; K    1; EIG -1.0000000E+00 AU
 BOTTOM OF VIRTUAL BANDS - BAND     39; K    1; EIG  1.0000000E+00 AU

    BETA       ELECTRONS
 INSULATING STATE - LEVEL SHIFTER    0.30 au
 TOP OF VALENCE BANDS -    BAND     35; K    1; EIG -1.0000000E+00 AU
 BOTTOM OF VIRTUAL BANDS - BAND     36; K    1; EIG  1.0000000E+00 AU
 TTTTTTTTTTTTTTTTTTTTTTTTTTTTTT PDIG        TELAPSE       45.79 TCPU       45.82
 CHARGE NORMALIZATION FACTOR   1.00000000
 TOTAL ATOMIC CHARGES:
  25.1868426   9.9356762   9.9356762   9.9432936  17.9985114
 SUMMED SPIN DENSITY           3.00000000
 TOTAL ATOMIC SPINS  :
   2.9254102   0.0272822   0.0272822   0.0204460  -0.0004206
 TTTTTTTTTTTTTTTTTTTTTTTTTTTTTT MOQGAD      TELAPSE       45.81 TCPU       45.83
 TTTTTTTTTTTTTTTTTTTTTTTTTTTTTT SHELLX2     TELAPSE       52.06 TCPU       52.09
 TTTTTTTTTTTTTTTTTTTTTTTTTTTTTT MONMO3      TELAPSE       52.12 TCPU       52.15
 CYC   7 ETOT(AU) -2.279140450503E+03 DETOT -2.09E-04 tst  9.01E-05 PX  2.22E-03
 TTTTTTTTTTTTTTTTTTTTTTTTTTTTTT FDIK        TELAPSE       52.32 TCPU       52.35

    ALPHA      ELECTRONS
 INSULATING STATE - LEVEL SHIFTER    0.30 au
 TOP OF VALENCE BANDS -    BAND     38; K    1; EIG -1.0000000E+00 AU
 BOTTOM OF VIRTUAL BANDS - BAND     39; K    1; EIG  1.0000000E+00 AU

    BETA       ELECTRONS
 INSULATING STATE - LEVEL SHIFTER    0.30 au
 TOP OF VALENCE BANDS -    BAND     35; K    1; EIG -1.0000000E+00 AU
 BOTTOM OF VIRTUAL BANDS - BAND     36; K    1; EIG  1.0000000E+00 AU
 TTTTTTTTTTTTTTTTTTTTTTTTTTTTTT PDIG        TELAPSE       52.37 TCPU       52.40
 CHARGE NORMALIZATION FACTOR   1.00000000
 TOTAL ATOMIC CHARGES:
  25.1842998   9.9365795   9.9365795   9.9440877  17.9984535
 SUMMED SPIN DENSITY           3.00000000
 TOTAL ATOMIC SPINS  :
   2.9287199   0.0261258   0.0261258   0.0194601  -0.0004316
 TTTTTTTTTTTTTTTTTTTTTTTTTTTTTT MOQGAD      TELAPSE       52.38 TCPU       52.41
 TTTTTTTTTTTTTTTTTTTTTTTTTTTTTT SHELLX2     TELAPSE       58.56 TCPU       58.59
 TTTTTTTTTTTTTTTTTTTTTTTTTTTTTT MONMO3      TELAPSE       58.62 TCPU       58.65
 CYC   8 ETOT(AU) -2.279140527173E+03 DETOT -7.67E-05 tst  3.18E-05 PX  1.43E-03
 TTTTTTTTTTTTTTTTTTTTTTTTTTTTTT FDIK        TELAPSE       58.82 TCPU       58.85

    ALPHA      ELECTRONS
 INSULATING STATE - LEVEL SHIFTER    0.30 au
 TOP OF VALENCE BANDS -    BAND     38; K    1; EIG -1.0000000E+00 AU
 BOTTOM OF VIRTUAL BANDS - BAND     39; K    1; EIG  1.0000000E+00 AU

    BETA       ELECTRONS
 INSULATING STATE - LEVEL SHIFTER    0.30 au
 TOP OF VALENCE BANDS -    BAND     35; K    1; EIG -1.0000000E+00 AU
 BOTTOM OF VIRTUAL BANDS - BAND     36; K    1; EIG  1.0000000E+00 AU
 TTTTTTTTTTTTTTTTTTTTTTTTTTTTTT PDIG        TELAPSE       58.87 TCPU       58.90
 CHARGE NORMALIZATION FACTOR   1.00000000
 TOTAL ATOMIC CHARGES:
  25.1828127   9.9371092   9.9371092   9.9445491  17.9984198
 SUMMED SPIN DENSITY           3.00000000
 TOTAL ATOMIC SPINS  :
   2.9307016   0.0254334   0.0254334   0.0188764  -0.0004448
 TTTTTTTTTTTTTTTTTTTTTTTTTTTTTT MOQGAD      TELAPSE       58.88 TCPU       58.92
 TTTTTTTTTTTTTTTTTTTTTTTTTTTTTT SHELLX2     TELAPSE       65.06 TCPU       65.10
 TTTTTTTTTTTTTTTTTTTTTTTTTTTTTT MONMO3      TELAPSE       65.12 TCPU       65.16
 CYC   9 ETOT(AU) -2.279140556847E+03 DETOT -2.97E-05 tst  1.15E-05 PX  9.48E-04
 TTTTTTTTTTTTTTTTTTTTTTTTTTTTTT FDIK        TELAPSE       65.32 TCPU       65.36

    ALPHA      ELECTRONS
 INSULATING STATE - LEVEL SHIFTER    0.30 au
 TOP OF VALENCE BANDS -    BAND     38; K    1; EIG -1.0000000E+00 AU
 BOTTOM OF VIRTUAL BANDS - BAND     39; K    1; EIG  1.0000000E+00 AU

    BETA       ELECTRONS
 INSULATING STATE - LEVEL SHIFTER    0.30 au
 TOP OF VALENCE BANDS -    BAND     35; K    1; EIG -1.0000000E+00 AU
 BOTTOM OF VIRTUAL BANDS - BAND     36; K    1; EIG  1.0000000E+00 AU
 TTTTTTTTTTTTTTTTTTTTTTTTTTTTTT PDIG        TELAPSE       65.37 TCPU       65.41
 CHARGE NORMALIZATION FACTOR   1.00000000
 TOTAL ATOMIC CHARGES:
  25.1819354   9.9374230   9.9374230   9.9448197  17.9983990
 SUMMED SPIN DENSITY           3.00000000
 TOTAL ATOMIC SPINS  :
   2.9319010   0.0250140   0.0250140   0.0185264  -0.0004553
 TTTTTTTTTTTTTTTTTTTTTTTTTTTTTT MOQGAD      TELAPSE       65.38 TCPU       65.42
 TTTTTTTTTTTTTTTTTTTTTTTTTTTTTT SHELLX2     TELAPSE       71.56 TCPU       71.60
 TTTTTTTTTTTTTTTTTTTTTTTTTTTTTT MONMO3      TELAPSE       71.62 TCPU       71.66
 CYC  10 ETOT(AU) -2.279140569026E+03 DETOT -1.22E-05 tst  4.22E-06 PX  7.06E-04
 TTTTTTTTTTTTTTTTTTTTTTTTTTTTTT FDIK        TELAPSE       71.82 TCPU       71.86

    ALPHA      ELECTRONS
 INSULATING STATE - LEVEL SHIFTER    0.30 au
 TOP OF VALENCE BANDS -    BAND     38; K    1; EIG -1.0000000E+00 AU
 BOTTOM OF VIRTUAL BANDS - BAND     39; K    1; EIG  1.0000000E+00 AU

    BETA       ELECTRONS
 INSULATING STATE - LEVEL SHIFTER    0.30 au
 TOP OF VALENCE BANDS -    BAND     35; K    1; EIG -1.0000000E+00 AU
 BOTTOM OF VIRTUAL BANDS - BAND     36; K    1; EIG  1.0000000E+00 AU
 TTTTTTTTTTTTTTTTTTTTTTTTTTTTTT PDIG        TELAPSE       71.87 TCPU       71.91
 CHARGE NORMALIZATION FACTOR   1.00000000
 TOTAL ATOMIC CHARGES:
  25.1814114   9.9376106   9.9376106   9.9449805  17.9983868
 SUMMED SPIN DENSITY           3.00000000
 TOTAL ATOMIC SPINS  :
   2.9326365   0.0247568   0.0247568   0.0183140  -0.0004641
 TTTTTTTTTTTTTTTTTTTTTTTTTTTTTT MOQGAD      TELAPSE       71.88 TCPU       71.93
 TTTTTTTTTTTTTTTTTTTTTTTTTTTTTT SHELLX2     TELAPSE       78.06 TCPU       78.11
 TTTTTTTTTTTTTTTTTTTTTTTTTTTTTT MONMO3      TELAPSE       78.12 TCPU       78.17
 CYC  11 ETOT(AU) -2.279140574316E+03 DETOT -5.29E-06 tst  1.59E-06 PX  5.23E-04
 TTTTTTTTTTTTTTTTTTTTTTTTTTTTTT FDIK        TELAPSE       78.32 TCPU       78.36

    ALPHA      ELECTRONS
 INSULATING STATE - LEVEL SHIFTER    0.30 au
 TOP OF VALENCE BANDS -    BAND     38; K    1; EIG -1.0000000E+00 AU
 BOTTOM OF VIRTUAL BANDS - BAND     39; K    1; EIG  1.0000000E+00 AU

    BETA       ELECTRONS
 INSULATING STATE - LEVEL SHIFTER    0.30 au
 TOP OF VALENCE BANDS -    BAND     35; K    1; EIG -1.0000000E+00 AU
 BOTTOM OF VIRTUAL BANDS - BAND     36; K    1; EIG  1.0000000E+00 AU
 TTTTTTTTTTTTTTTTTTTTTTTTTTTTTT PDIG        TELAPSE       78.37 TCPU       78.41
 CHARGE NORMALIZATION FACTOR   1.00000000
 TOTAL ATOMIC CHARGES:
  25.1810941   9.9377243   9.9377243   9.9450774  17.9983798
 SUMMED SPIN DENSITY           3.00000000
 TOTAL ATOMIC SPINS  :
   2.9330939   0.0245969   0.0245969   0.0181834  -0.0004711
 TTTTTTTTTTTTTTTTTTTTTTTTTTTTTT MOQGAD      TELAPSE       78.38 TCPU       78.43
 TTTTTTTTTTTTTTTTTTTTTTTTTTTTTT SHELLX2     TELAPSE       84.56 TCPU       84.61
 TTTTTTTTTTTTTTTTTTTTTTTTTTTTTT MONMO3      TELAPSE       84.62 TCPU       84.67
 CYC  12 ETOT(AU) -2.279140576743E+03 DETOT -2.43E-06 tst  6.20E-07 PX  3.86E-04
 TTTTTTTTTTTTTTTTTTTTTTTTTTTTTT FDIK        TELAPSE       84.82 TCPU       84.87

    ALPHA      ELECTRONS
 INSULATING STATE - LEVEL SHIFTER    0.30 au
 TOP OF VALENCE BANDS -    BAND     38; K    1; EIG -1.0000000E+00 AU
 BOTTOM OF VIRTUAL BANDS - BAND     39; K    1; EIG  1.0000000E+00 AU

    BETA       ELECTRONS
 INSULATING STATE - LEVEL SHIFTER    0.30 au
 TOP OF VALENCE BANDS -    BAND     35; K    1; EIG -1.0000000E+00 AU
 BOTTOM OF VIRTUAL BANDS - BAND     36; K    1; EIG  1.0000000E+00 AU
 TTTTTTTTTTTTTTTTTTTTTTTTTTTTTT PDIG        TELAPSE       84.87 TCPU       84.92
 CHARGE NORMALIZATION FACTOR   1.00000000
 TOTAL ATOMIC CHARGES:
  25.1808992   9.9377944   9.9377944   9.9451363  17.9983757
 SUMMED SPIN DENSITY           3.00000000
 TOTAL ATOMIC SPINS  :
   2.9333831   0.0244956   0.0244956   0.0181021  -0.0004763
 TTTTTTTTTTTTTTTTTTTTTTTTTTTTTT MOQGAD      TELAPSE       84.88 TCPU       84.93
 TTTTTTTTTTTTTTTTTTTTTTTTTTTTTT SHELLX2     TELAPSE       91.07 TCPU       91.12
 TTTTTTTTTTTTTTTTTTTTTTTTTTTTTT MONMO3      TELAPSE       91.13 TCPU       91.18
 CYC  13 ETOT(AU) -2.279140577903E+03 DETOT -1.16E-06 tst  2.50E-07 PX  2.85E-04
 TTTTTTTTTTTTTTTTTTTTTTTTTTTTTT FDIK        TELAPSE       91.32 TCPU       91.38

    ALPHA      ELECTRONS
 INSULATING STATE - LEVEL SHIFTER    0.30 au
 TOP OF VALENCE BANDS -    BAND     38; K    1; EIG -1.0000000E+00 AU
 BOTTOM OF VIRTUAL BANDS - BAND     39; K    1; EIG  1.0000000E+00 AU

    BETA       ELECTRONS
 INSULATING STATE - LEVEL SHIFTER    0.30 au
 TOP OF VALENCE BANDS -    BAND     35; K    1; EIG -1.0000000E+00 AU
 BOTTOM OF VIRTUAL BANDS - BAND     36; K    1; EIG  1.0000000E+00 AU
 TTTTTTTTTTTTTTTTTTTTTTTTTTTTTT PDIG        TELAPSE       91.37 TCPU       91.43
 CHARGE NORMALIZATION FACTOR   1.00000000
 TOTAL ATOMIC CHARGES:
  25.1807770   9.9378384   9.9378384   9.9451729  17.9983732
 SUMMED SPIN DENSITY           3.00000000
 TOTAL ATOMIC SPINS  :
   2.9335691   0.0244302   0.0244302   0.0180503  -0.0004799
 TTTTTTTTTTTTTTTTTTTTTTTTTTTTTT MOQGAD      TELAPSE       91.39 TCPU       91.44
 TTTTTTTTTTTTTTTTTTTTTTTTTTTTTT SHELLX2     TELAPSE       97.56 TCPU       97.62
 TTTTTTTTTTTTTTTTTTTTTTTTTTTTTT MONMO3      TELAPSE       97.62 TCPU       97.68
 CYC  14 ETOT(AU) -2.279140578475E+03 DETOT -5.72E-07 tst  1.04E-07 PX  2.10E-04
 TTTTTTTTTTTTTTTTTTTTTTTTTTTTTT FDIK        TELAPSE       97.82 TCPU       97.88

    ALPHA      ELECTRONS
 INSULATING STATE - LEVEL SHIFTER    0.30 au
 TOP OF VALENCE BANDS -    BAND     38; K    1; EIG -1.0000000E+00 AU
 BOTTOM OF VIRTUAL BANDS - BAND     39; K    1; EIG  1.0000000E+00 AU

    BETA       ELECTRONS
 INSULATING STATE - LEVEL SHIFTER    0.30 au
 TOP OF VALENCE BANDS -    BAND     35; K    1; EIG -1.0000000E+00 AU
 BOTTOM OF VIRTUAL BANDS - BAND     36; K    1; EIG  1.0000000E+00 AU
 TTTTTTTTTTTTTTTTTTTTTTTTTTTTTT PDIG        TELAPSE       97.87 TCPU       97.92
 CHARGE NORMALIZATION FACTOR   1.00000000
 TOTAL ATOMIC CHARGES:
  25.1806990   9.9378666   9.9378666   9.9451961  17.9983718
 SUMMED SPIN DENSITY           3.00000000
 TOTAL ATOMIC SPINS  :
   2.9336909   0.0243874   0.0243874   0.0180169  -0.0004826
 TTTTTTTTTTTTTTTTTTTTTTTTTTTTTT MOQGAD      TELAPSE       97.88 TCPU       97.94
 TTTTTTTTTTTTTTTTTTTTTTTTTTTTTT SHELLX2     TELAPSE      104.06 TCPU      104.12
 TTTTTTTTTTTTTTTTTTTTTTTTTTTTTT MONMO3      TELAPSE      104.12 TCPU      104.18
 CYC  15 ETOT(AU) -2.279140578762E+03 DETOT -2.87E-07 tst  4.50E-08 PX  1.55E-04
 TTTTTTTTTTTTTTTTTTTTTTTTTTTTTT FDIK        TELAPSE      104.32 TCPU      104.38

    ALPHA      ELECTRONS
 INSULATING STATE - LEVEL SHIFTER    0.30 au
 TOP OF VALENCE BANDS -    BAND     38; K    1; EIG -1.0000000E+00 AU
 BOTTOM OF VIRTUAL BANDS - BAND     39; K    1; EIG  1.0000000E+00 AU

    BETA       ELECTRONS
 INSULATING STATE - LEVEL SHIFTER    0.30 au
 TOP OF VALENCE BANDS -    BAND     35; K    1; EIG -1.0000000E+00 AU
 BOTTOM OF VIRTUAL BANDS - BAND     36; K    1; EIG  1.0000000E+00 AU
 TTTTTTTTTTTTTTTTTTTTTTTTTTTTTT PDIG        TELAPSE      104.37 TCPU      104.43
 CHARGE NORMALIZATION FACTOR   1.00000000
 TOTAL ATOMIC CHARGES:
  25.1806482   9.9378849   9.9378849   9.9452110  17.9983709
 SUMMED SPIN DENSITY           3.00000000
 TOTAL ATOMIC SPINS  :
   2.9337722   0.0243587   0.0243587   0.0179948  -0.0004843
 TTTTTTTTTTTTTTTTTTTTTTTTTTTTTT MOQGAD      TELAPSE      104.38 TCPU      104.44
 TTTTTTTTTTTTTTTTTTTTTTTTTTTTTT SHELLX2     TELAPSE      110.62 TCPU      110.69
 TTTTTTTTTTTTTTTTTTTTTTTTTTTTTT MONMO3      TELAPSE      110.69 TCPU      110.75
 CYC  16 ETOT(AU) -2.279140578907E+03 DETOT -1.45E-07 tst  2.01E-08 PX  1.15E-04
 TTTTTTTTTTTTTTTTTTTTTTTTTTTTTT FDIK        TELAPSE      110.89 TCPU      110.95

    ALPHA      ELECTRONS
 INSULATING STATE - LEVEL SHIFTER    0.30 au
 TOP OF VALENCE BANDS -    BAND     38; K    1; EIG -1.0000000E+00 AU
 BOTTOM OF VIRTUAL BANDS - BAND     39; K    1; EIG  1.0000000E+00 AU

    BETA       ELECTRONS
 INSULATING STATE - LEVEL SHIFTER    0.30 au
 TOP OF VALENCE BANDS -    BAND     35; K    1; EIG -1.0000000E+00 AU
 BOTTOM OF VIRTUAL BANDS - BAND     36; K    1; EIG  1.0000000E+00 AU
 TTTTTTTTTTTTTTTTTTTTTTTTTTTTTT PDIG        TELAPSE      110.94 TCPU      111.00
 CHARGE NORMALIZATION FACTOR   1.00000000
 TOTAL ATOMIC CHARGES:
  25.1806145   9.9378972   9.9378972   9.9452208  17.9983703
 SUMMED SPIN DENSITY           3.00000000
 TOTAL ATOMIC SPINS  :
   2.9338273   0.0243391   0.0243391   0.0179801  -0.0004855
 TTTTTTTTTTTTTTTTTTTTTTTTTTTTTT MOQGAD      TELAPSE      110.95 TCPU      111.02
 TTTTTTTTTTTTTTTTTTTTTTTTTTTTTT SHELLX2     TELAPSE      117.23 TCPU      117.30
 TTTTTTTTTTTTTTTTTTTTTTTTTTTTTT MONMO3      TELAPSE      117.29 TCPU      117.36
 CYC  17 ETOT(AU) -2.279140578979E+03 DETOT -7.23E-08 tst  9.26E-09 PX  8.49E-05
 TTTTTTTTTTTTTTTTTTTTTTTTTTTTTT FDIK        TELAPSE      117.49 TCPU      117.55

    ALPHA      ELECTRONS
 INSULATING STATE - LEVEL SHIFTER    0.30 au
 TOP OF VALENCE BANDS -    BAND     38; K    1; EIG -1.0000000E+00 AU
 BOTTOM OF VIRTUAL BANDS - BAND     39; K    1; EIG  1.0000000E+00 AU

    BETA       ELECTRONS
 INSULATING STATE - LEVEL SHIFTER    0.30 au
 TOP OF VALENCE BANDS -    BAND     35; K    1; EIG -1.0000000E+00 AU
 BOTTOM OF VIRTUAL BANDS - BAND     36; K    1; EIG  1.0000000E+00 AU
 TTTTTTTTTTTTTTTTTTTTTTTTTTTTTT PDIG        TELAPSE      117.54 TCPU      117.60
 CHARGE NORMALIZATION FACTOR   1.00000000
 TOTAL ATOMIC CHARGES:
  25.1805916   9.9379055   9.9379055   9.9452273  17.9983700
 SUMMED SPIN DENSITY           3.00000000
 TOTAL ATOMIC SPINS  :
   2.9338653   0.0243255   0.0243255   0.0179700  -0.0004862
 TTTTTTTTTTTTTTTTTTTTTTTTTTTTTT MOQGAD      TELAPSE      117.55 TCPU      117.62
 TTTTTTTTTTTTTTTTTTTTTTTTTTTTTT SHELLX2     TELAPSE      123.76 TCPU      123.83
 +++ ENERGIES IN A.U. +++
 ::: EXT EL-POLE                                  -1.3412892206684E+03
 ::: EXT EL-SPHEROPOLE                             1.2845543123185E+01
 ::: BIELET ZONE E-E                               1.8751530664778E+03
 ::: TOTAL E-E                                     5.4670938893255E+02
 ::: TOTAL E-N + N-E                              -4.7384752178499E+03
 ::: TOTAL N-N                                    -3.6562399826565E+02
 ::: KINETIC ENERGY                                2.2782492481691E+03
 ::: TOTAL   ENERGY                               -2.2791405790139E+03
 ::: VIRIAL COEFFICIENT                            9.9980442075870E-01
 TTTTTTTTTTTTTTTTTTTTTTTTTTTTTT MONMO3      TELAPSE      123.83 TCPU      123.90
 CYC  18 ETOT(AU) -2.279140579014E+03 DETOT -3.48E-08 tst  4.59E-09 PX  8.49E-05

 == SCF ENDED - CONVERGENCE ON ENERGY      E(AU) -2.2791405790139E+03 CYCLES  18

 TOTAL ENERGY(HF)(AU)(  18) -2.2791405790139E+03 DE-3.5E-08 tst 4.6E-09 PX 8.5E-05

 NEIGHBORS OF THE NON-EQUIVALENT ATOMS

 N = NUMBER OF NEIGHBORS AT DISTANCE R
    ATOM  N     R/ANG      R/AU   NEIGHBORS (ATOM LABELS AND CELL INDICES)
   1 CO   6     2.0355     3.8465    2 F    0 0 0    2 F   -1 0 0    3 F    0-1 0
                                     3 F    0 0 0    4 F    0 0 0    4 F    0 0-1
   1 CO   8     3.5256     6.6624    5 K    0 0 0    5 K   -1 0 0    5 K    0-1 0
                                     5 K    0 0-1    5 K   -1-1 0    5 K   -1 0-1
                                     5 K    0-1-1    5 K   -1-1-1
   1 CO   4     4.0710     7.6931    1 CO  -1 0 0    1 CO   1 0 0    1 CO   0-1 0
                                     1 CO   0 1 0
   1 CO   2     4.0710     7.6931    1 CO   0 0-1    1 CO   0 0 1
   1 CO  16     4.5515     8.6011    2 F    0 1 0    2 F    0-1 0    2 F   -1-1 0
                                     2 F   -1 1 0    3 F   -1-1 0    3 F    1-1 0
                                     3 F    1 0 0    3 F   -1 0 0    4 F    1 0 0
                                     4 F   -1 0 0    4 F    0 1 0    4 F    0-1 0
                                     4 F   -1 0-1    4 F    1 0-1    4 F    0-1-1
                                     4 F    0 1-1
   1 CO   8     4.5515     8.6011    2 F    0 0 1    2 F    0 0-1    2 F   -1 0-1
                                     2 F   -1 0 1    3 F    0-1-1    3 F    0-1 1
                                     3 F    0 0 1    3 F    0 0-1

   2 F    2     2.0355     3.8465    1 CO   0 0 0    1 CO   1 0 0
   2 F    8     2.8786     5.4398    3 F    0 0 0    3 F    1 0 0    3 F    0-1 0
                                     3 F    1-1 0    4 F    0 0 0    4 F    1 0 0
                                     4 F    0 0-1    4 F    1 0-1
   2 F    4     2.8786     5.4398    5 K    0 0 0    5 K    0-1 0    5 K    0 0-1
                                     5 K    0-1-1
   2 F    4     4.0710     7.6931    2 F   -1 0 0    2 F    1 0 0    2 F    0-1 0
                                     2 F    0 1 0
   2 F    2     4.0710     7.6931    2 F    0 0-1    2 F    0 0 1
   2 F    4     4.5515     8.6011    1 CO   0-1 0    1 CO   0 1 0    1 CO   1 1 0
                                     1 CO   1-1 0

   4 F    2     2.0355     3.8465    1 CO   0 0 0    1 CO   0 0 1
   4 F    4     2.8786     5.4398    5 K    0 0 0    5 K   -1 0 0    5 K    0-1 0
                                     5 K   -1-1 0
   4 F    8     2.8786     5.4398    2 F    0 0 0    2 F   -1 0 0    2 F    0 0 1
                                     2 F   -1 0 1    3 F    0-1 1    3 F    0 0 1
                                     3 F    0-1 0    3 F    0 0 0
   4 F    4     4.0710     7.6931    4 F   -1 0 0    4 F    1 0 0    4 F    0-1 0
                                     4 F    0 1 0
   4 F    2     4.0710     7.6931    4 F    0 0-1    4 F    0 0 1
   4 F    8     4.5515     8.6011    1 CO  -1 0 0    1 CO   1 0 0    1 CO   0-1 0
                                     1 CO   0 1 0    1 CO   1 0 1    1 CO  -1 0 1
                                     1 CO   0 1 1    1 CO   0-1 1

   5 K   12     2.8786     5.4398    4 F    0 0 0    4 F    1 0 0    4 F    0 1 0
                                     4 F    1 1 0    2 F    0 0 0    2 F    0 1 0
                                     2 F    0 0 1    2 F    0 1 1    3 F    1 0 1
                                     3 F    0 0 1    3 F    1 0 0    3 F    0 0 0
   5 K    8     3.5256     6.6624    1 CO   0 0 0    1 CO   1 0 0    1 CO   0 1 0
                                     1 CO   0 0 1    1 CO   1 1 0    1 CO   1 0 1
                                     1 CO   0 1 1    1 CO   1 1 1
   5 K    4     4.0710     7.6931    5 K   -1 0 0    5 K    1 0 0    5 K    0-1 0
                                     5 K    0 1 0
   5 K    2     4.0710     7.6931    5 K    0 0-1    5 K    0 0 1
   5 K   24     4.9859     9.4221    2 F   -1 0 0    2 F    1 0 0    2 F    1 1 0
                                     2 F    1 0 1    2 F   -1 0 1    2 F   -1 1 0
                                     2 F    1 1 1    2 F   -1 1 1    3 F    1 1 1
                                     3 F    1-1 1    3 F    0-1 1    3 F    1-1 0
                                     3 F    1 1 0    3 F    0 1 1    3 F    0-1 0
                                     3 F    0 1 0    4 F    0 0-1    4 F    0 0 1
                                     4 F    1 0 1    4 F    1 0-1    4 F    0 1 1
                                     4 F    0 1-1    4 F    1 1 1    4 F    1 1-1
   5 K    4     5.7573    10.8797    5 K   -1-1 0    5 K    1 1 0    5 K   -1 1 0
                                     5 K    1-1 0

 TTTTTTTTTTTTTTTTTTTTTTTTTTTTTT AFTER FIRST TELAPSE      123.83 TCPU      123.90
 MMMMMMMMMMMMMMMMMMMMMMMMMMMMMMMMMMMMMMMMMMMMMMMMMMMMMMMMMMMMMMMMMMMMMMMMMMMMMMM
     ALPHA+BETA ELECTRONS
 MULLIKEN POPULATION ANALYSIS - NO. OF ELECTRONS   73.000000

  ATOM    Z CHARGE  A.O. POPULATION

   1 CO  27 25.181  2.000  1.887  2.063  2.063  2.064  0.348  0.584  0.584
                    0.583  1.307  1.027  1.027  1.021  0.470  0.334  0.334
                    0.340  0.941  1.768  1.768  0.949  0.915  0.117  0.236
                    0.236  0.116  0.100
   2 F    9  9.938  1.999  0.813  0.989  1.045  1.056  0.994  0.690  0.677
                    0.679  0.190  0.283  0.265  0.258
   3 F    9  9.938  1.999  0.813  1.045  0.989  1.056  0.994  0.677  0.690
                    0.679  0.190  0.265  0.283  0.258
   4 F    9  9.945  1.999  0.813  1.050  1.050  0.991  0.990  0.675  0.675
                    0.683  0.194  0.267  0.267  0.291
   5 K   19 17.998  2.000  1.985  2.031  2.031  2.031  0.798  1.055  1.055
                    1.054  0.938  0.564  0.564  0.562  0.285  0.349  0.349
                    0.350

  ATOM    Z CHARGE  SHELL POPULATION

   1 CO  27 25.181  2.000  8.077  2.099  4.381  1.478  6.341  0.805
   2 F    9  9.938  1.999  3.903  3.040  0.996
   3 F    9  9.938  1.999  3.903  3.040  0.996
   4 F    9  9.945  1.999  3.904  3.023  1.019
   5 K   19 17.998  2.000  8.077  3.961  2.628  1.332

 OVERLAP POPULATION CONDENSED TO ATOMS FOR FIRST   6 NEIGHBORS

 ATOM A   1 CO   ATOM B     CELL      R(AB)/AU R(AB)/ANG    OVPOP(AB)
                  2 F    (  0  0  0)     3.847     2.035     0.001
                  5 K    (  0  0  0)     6.662     3.526     0.000
                  1 CO   ( -1  0  0)     7.693     4.071     0.000
                  1 CO   (  0  0 -1)     7.693     4.071     0.000
                  2 F    (  0  1  0)     8.601     4.552     0.000
                  2 F    (  0  0  1)     8.601     4.552     0.000

 ATOM A   2 F    ATOM B     CELL      R(AB)/AU R(AB)/ANG    OVPOP(AB)
                  1 CO   (  0  0  0)     3.847     2.035     0.001
                  3 F    (  0  0  0)     5.440     2.879     0.001
                  5 K    (  0  0  0)     5.440     2.879    -0.003
                  2 F    ( -1  0  0)     7.693     4.071    -0.001
                  2 F    (  0  0 -1)     7.693     4.071     0.000
                  1 CO   (  0 -1  0)     8.601     4.552     0.000

 ATOM A   4 F    ATOM B     CELL      R(AB)/AU R(AB)/ANG    OVPOP(AB)
                  1 CO   (  0  0  0)     3.847     2.036    -0.007
                  5 K    (  0  0  0)     5.440     2.879    -0.004
                  2 F    (  0  0  0)     5.440     2.879     0.001
                  4 F    ( -1  0  0)     7.693     4.071     0.000
                  4 F    (  0  0 -1)     7.693     4.071    -0.001
                  1 CO   ( -1  0  0)     8.601     4.552     0.000

 ATOM A   5 K    ATOM B     CELL      R(AB)/AU R(AB)/ANG    OVPOP(AB)
                  4 F    (  0  0  0)     5.440     2.879    -0.004
                  1 CO   (  0  0  0)     6.662     3.526     0.000
                  5 K    ( -1  0  0)     7.693     4.071     0.000
                  5 K    (  0  0 -1)     7.693     4.071     0.000
                  2 F    ( -1  0  0)     9.422     4.986     0.000
                  5 K    ( -1 -1  0)    10.880     5.757     0.000
 TTTTTTTTTTTTTTTTTTTTTTTTTTTTTT AFTER FIRST TELAPSE      123.83 TCPU      123.90
 MMMMMMMMMMMMMMMMMMMMMMMMMMMMMMMMMMMMMMMMMMMMMMMMMMMMMMMMMMMMMMMMMMMMMMMMMMMMMMM
     ALPHA-BETA ELECTRONS
 MULLIKEN POPULATION ANALYSIS - NO. OF ELECTRONS    3.000000

  ATOM    Z CHARGE  A.O. POPULATION

   1 CO  27  2.934  0.000  0.002 -0.001 -0.001 -0.001 -0.001  0.006  0.006
                    0.005  0.008  0.010  0.010  0.008 -0.007 -0.013 -0.013
                   -0.011  0.917  0.031  0.031  0.921  0.910  0.052 -0.030
                   -0.030  0.045  0.081
   2 F    9  0.024  0.000  0.005  0.021  0.009  0.001  0.000  0.000  0.001
                    0.000 -0.003 -0.003 -0.005 -0.002
   3 F    9  0.024  0.000  0.005  0.009  0.021  0.001  0.000  0.001  0.000
                    0.000 -0.003 -0.005 -0.003 -0.002
   4 F    9  0.018  0.000  0.005  0.001  0.001  0.022  0.000  0.000  0.000
                    0.002 -0.003 -0.001 -0.001 -0.006
   5 K   19  0.000  0.000  0.000  0.000  0.000  0.000  0.000  0.000  0.000
                    0.000  0.000  0.000  0.000  0.000  0.000  0.000  0.000
                    0.000

  ATOM    Z CHARGE  SHELL POPULATION

   1 CO  27  2.934  0.000 -0.002  0.016  0.037 -0.045  2.809  0.119
   2 F    9  0.024  0.000  0.037  0.001 -0.013
   3 F    9  0.024  0.000  0.037  0.001 -0.013
   4 F    9  0.018  0.000  0.028  0.002 -0.012
   5 K   19  0.000  0.000  0.000  0.000  0.000  0.000

 OVERLAP POPULATION CONDENSED TO ATOMS FOR FIRST   6 NEIGHBORS

 ATOM A   1 CO   ATOM B     CELL      R(AB)/AU R(AB)/ANG    OVPOP(AB)
                  2 F    (  0  0  0)     3.847     2.035    -0.018
                  5 K    (  0  0  0)     6.662     3.526     0.000
                  1 CO   ( -1  0  0)     7.693     4.071     0.000
                  1 CO   (  0  0 -1)     7.693     4.071     0.000
                  2 F    (  0  1  0)     8.601     4.552     0.000
                  2 F    (  0  0  1)     8.601     4.552     0.000

 ATOM A   2 F    ATOM B     CELL      R(AB)/AU R(AB)/ANG    OVPOP(AB)
                  1 CO   (  0  0  0)     3.847     2.035    -0.018
                  3 F    (  0  0  0)     5.440     2.879    -0.001
                  5 K    (  0  0  0)     5.440     2.879     0.000
                  2 F    ( -1  0  0)     7.693     4.071     0.000
                  2 F    (  0  0 -1)     7.693     4.071     0.000
                  1 CO   (  0 -1  0)     8.601     4.552     0.000

 ATOM A   4 F    ATOM B     CELL      R(AB)/AU R(AB)/ANG    OVPOP(AB)
                  1 CO   (  0  0  0)     3.847     2.036    -0.016
                  5 K    (  0  0  0)     5.440     2.879     0.000
                  2 F    (  0  0  0)     5.440     2.879    -0.001
                  4 F    ( -1  0  0)     7.693     4.071     0.000
                  4 F    (  0  0 -1)     7.693     4.071     0.000
                  1 CO   ( -1  0  0)     8.601     4.552     0.000

 ATOM A   5 K    ATOM B     CELL      R(AB)/AU R(AB)/ANG    OVPOP(AB)
                  4 F    (  0  0  0)     5.440     2.879     0.000
                  1 CO   (  0  0  0)     6.662     3.526     0.000
                  5 K    ( -1  0  0)     7.693     4.071     0.000
                  5 K    (  0  0 -1)     7.693     4.071     0.000
                  2 F    ( -1  0  0)     9.422     4.986     0.000
                  5 K    ( -1 -1  0)    10.880     5.757     0.000
 EIGENVECTORS IN FORTRAN UNIT  8
 TTTTTTTTTTTTTTTTTTTTTTTTTTTTTT END         TELAPSE      123.85 TCPU      123.92
 EEEEEEEEEE TERMINATION  DATE 09 12 2014 TIME 10:35:17.7
