
         
 *******************************************************************************
 *                                                                             *
 *                               CRYSTAL14                                     *
 *                      public : 1.0.2 - Feb 23rd, 2013                        *
 *                       HTTP://WWW.CRYSTAL.UNITO.IT                           *
 *                                                                             *
 *                              MAIN AUTHORS                                   *
 *                                                                             *
 *  R. DOVESI(1,11), V.R. SAUNDERS(2), C. ROETTI(1,11), R. ORLANDO(1,11),      *
 *  C.M. ZICOVICH-WILSON(1,3), F. PASCALE(4), B. CIVALLERI(1,11),              *
 *  K. DOLL(5), N.M. HARRISON(2,6), I. J. BUSH(7), Ph. D'ARCO(8),              *
 *  M. LLUNELL(9), M. CAUSA'(10), Y. NOEL(8)                                   *
 *                                                                             *
 *        CONTRIBUTIONS TO THE CURRENT RELEASE HAVE BEEN GIVEN BY              *
 *                                                                             *
 *  L. MASCHIO(1,11), S. CASASSA(1,11), A. ERBA(1,11), M. FERRABONE(1,11),     *
 *  M. DE LA PIERRE(1,11), M. FERRERO(1,11), V. LACIVITA(1,11),                *
 *  J. BAIMA(1,11), E. ALBANESE(1,11), M.F. PEINTINGER(12), R. BAST(13),       *
 *  M. RERAT(14), B. KIRTMAN(15), R. DEMICHELIS(1,16)                          *
 *                                                                             *
 * (1) THEORETICAL CHEMISTRY GROUP - UNIVERSITA' DI TORINO - TORINO (ITALY)    *
 *     http://www.crystal.unito.it                                             *
 * (2) COMPUTATIONAL SCIENCE & ENGINEERING DEPARTMENT - STFC DARESBURY (UK)    *
 *     http://www.stfc.ac.uk/CSE/randd/cmg/CRYSTAL/25806.aspx                  *
 * (3) UNIVERSIDAD AUTONOMA DEL ESTADO DE MORELOS - CUERNAVACA (MEXICO)        *
 * (4) UNIVERSITE' DE LORRAINE - NANCY (FRANCE)                                *
 * (5) UNIVERSITAET ULM - ULM (GERMANY); (6) IMPERIAL COLLEGE - LONDON (UK)    *
 * (7) NAG - OXFORD (UK); (8) UPMC - SORBONNE UNIVERSITES - PARIS (FRANCE)     *
 * (9) UNIVERSIDAD DE BARCELONA - BARCELONA (SPAIN)                            *
 *(10) UNIVERSITA' DI NAPOLI "FEDERICO II" - NAPOLI (ITALY)                    *
 *(11) NIS - NANOSTRUCTURED INTERFACES AND SURFACES - TORINO (ITALY)           *
 *(12) MPI FUER CHEMISCHE ENERGIEKONVERSION - MUELHEIM AN DER RUHR (GERMANY)   *
 *(13) UNIVERSITY OF STOCKHOLM - STOCKHOLM (SWEDEN)                            *
 *(14) UNIVERSITE' DE PAU ET DES PAYS DE L'ADOUR - PAU (FRANCE)                *
 *(15) UNIVERSITY OF CALIFORNIA SANTA BARBARA - SANTA BARBARA (USA)            *
 *(16) CURTIN UNIVERSITY - PERTH (AUSTRALIA)                                   *
 *                                                                             *
 ********************************************************************************
 EEEEEEEEEE STARTING  DATE 09 12 2014 TIME 10:53:00.8
 KCoF3 base all-electron ferro 4 4 4                                             

 CRYSTAL CALCULATION
 (INPUT ACCORDING TO THE INTERNATIONAL TABLES FOR X-RAY CRYSTALLOGRAPHY)
 CRYSTAL FAMILY                       :  CUBIC       
 CRYSTAL CLASS  (GROTH - 1921)        :  CUBIC HEXAKISOCTAHEDRAL              

 SPACE GROUP (CENTROSYMMETRIC)        :  P M 3 M         

 LATTICE PARAMETERS  (ANGSTROMS AND DEGREES) - CONVENTIONAL CELL
        A           B           C        ALPHA        BETA       GAMMA
     4.07100     4.07100     4.07100    90.00000    90.00000    90.00000


 NUMBER OF IRREDUCIBLE ATOMS IN THE CONVENTIONAL CELL:    3

 INPUT COORDINATES

 ATOM AT. N.              COORDINATES
   1  27     0.000000000000E+00  0.000000000000E+00  0.000000000000E+00
   2   9     5.000000000000E-01  0.000000000000E+00  0.000000000000E+00
   3  19     5.000000000000E-01  5.000000000000E-01  5.000000000000E-01

 *******************************************************************************

 << INFORMATION >>: FROM NOW ON, ALL COORDINATES REFER TO THE PRIMITIVE CELL

 *******************************************************************************

 LATTICE PARAMETERS  (ANGSTROMS AND DEGREES) - PRIMITIVE CELL
       A          B          C         ALPHA     BETA     GAMMA        VOLUME
    4.07100    4.07100    4.07100    90.00000  90.00000  90.00000     67.468850

 COORDINATES OF THE EQUIVALENT ATOMS (FRACTIONAL UNITS)

 N. ATOM EQUIV AT. N.          X                  Y                  Z

   1   1   1   27 CO    0.00000000000E+00  0.00000000000E+00  0.00000000000E+00

   2   2   1    9 F    -5.00000000000E-01  0.00000000000E+00  0.00000000000E+00
   3   2   2    9 F     0.00000000000E+00 -5.00000000000E-01  0.00000000000E+00
   4   2   3    9 F     0.00000000000E+00  0.00000000000E+00 -5.00000000000E-01

   5   3   1   19 K    -5.00000000000E-01 -5.00000000000E-01 -5.00000000000E-01

 NUMBER OF SYMMETRY OPERATORS         :   48
 *******************************************************************************
 * GEOMETRY EDITING - INPUT COORDINATES ARE GIVEN IN ANGSTROM         
 *******************************************************************************

 GEOMETRY NOW FULLY CONSISTENT WITH THE GROUP

 *******************************************************************************
 * CELL DEFORMATION
 *******************************************************************************

    ELASTIC STRAIN MATRIX (ADIMENSIONAL)

    1    0.0000000000    0.0000000000    0.0000000000
    2    0.0000000000    0.0000000000    0.0000000000
    3    0.0000000000    0.0000000000    0.0000000010

 LATTICE PARAMETERS (ANGSTROMS AND DEGREES) OF
 (1) ORIGINAL PRIMITIVE CELL
 (2) ORIGINAL CRYSTALLOGRAPHIC CELL
 (3) DEFORMED PRIMITIVE CELL
 (4) DEFORMED CRYSTALLOGRAPHIC CELL

            A           B           C        ALPHA       BETA        GAMMA         VOL
 (2)    4.071000    4.071000    4.071000   90.000000   90.000000   90.000000   67.468850
 (4)    4.071000    4.071000    4.071000   90.000000   90.000000   90.000000   67.468850

 * CELL DEFORMATION COMPLETE - NO. OF SYMMOPS  16

 NO SYMMOPS WITH FINITE TRANSLATIONAL COMPONENT

 *******************************************************************************
 * SUPERCELL OPTION
 *******************************************************************************

 INFORMATION **** GEXPAD **** SUPERCELL VOLUME NEGATIVE ? - SIGN OF EXPANSION MATRIX REVERSED

        EXPANSION MATRIX OF PRIMITIVE CELL
 E1    -1.000    -1.000     0.000
 E2     1.000     0.000     1.000
 E3     0.000     1.000     1.000

 NUMBER OF ATOMS PER SUPERCELL   10

        DIRECT LATTICE VECTORS COMPONENTS (ANGSTROM)
 B1    -4.071    -4.071     0.000
 B2     4.071     0.000     4.071
 B3     0.000     4.071     4.071

 LATTICE PARAMETERS  (ANGSTROM AND DEGREES)
       A          B          C         ALPHA     BETA     GAMMA        VOLUME
    5.75726    5.75726    5.75726    60.00000 120.00000 120.00000    134.937700


 **** ATOMS BELONGING TO THE SUPERCELL
 LABEL AT.NO.      COORDINATES (ANGSTROM AND FRACTIONAL)
     1    27     0.0000     0.0000     0.0000     0.0000     0.0000     0.0000
     2    27     0.0000     0.0000    -4.0710    -0.5000    -0.5000    -0.5000
     3     9    -2.0355     0.0000     0.0000     0.2500    -0.2500     0.2500
     4     9     2.0355     0.0000     0.0000    -0.2500     0.2500    -0.2500
     5     9     0.0000    -2.0355     0.0000     0.2500     0.2500    -0.2500
     6     9     0.0000     2.0355     0.0000    -0.2500    -0.2500     0.2500
     7     9     0.0000     0.0000    -2.0355    -0.2500    -0.2500    -0.2500
     8     9     0.0000     0.0000     2.0355     0.2500     0.2500     0.2500
     9    19    -2.0355    -2.0355    -2.0355     0.2500    -0.2500    -0.2500
    10    19     2.0355     2.0355     2.0355    -0.2500     0.2500     0.2500

 **************************** SUPERCELL GENERATED ****************************

 GCALCO - MAX INDICES DIRECT LATTICE VECTOR    14    14    14
 NO.OF VECTORS CREATED 6999 STARS  141 RMAX   115.13941 BOHR

 GEOMETRY FOR WAVE FUNCTION - DIMENSIONALITY OF THE SYSTEM    3
 (NON PERIODIC DIRECTION: LATTICE PARAMETER FORMALLY SET TO 500)
 *******************************************************************************
 LATTICE PARAMETERS (ANGSTROMS AND DEGREES) - BOHR = 0.5291772083 ANGSTROM
 PRIMITIVE CELL - CENTRING CODE 1/1 VOLUME=   134.937700 - DENSITY  3.812 g/cm^3
         A              B              C           ALPHA      BETA       GAMMA 
     5.75726341     5.75726342     5.75726342    60.000000 120.000000 120.000000
 *******************************************************************************
 ATOMS IN THE ASYMMETRIC UNIT    5 - ATOMS IN THE UNIT CELL:   10
     ATOM              X/A                 Y/B                 Z/C    
 *******************************************************************************
   1 T  27 CO    0.000000000000E+00  0.000000000000E+00  0.000000000000E+00
   2 T  27 CO   -5.000000000000E-01 -5.000000000000E-01 -5.000000000000E-01
   3 T   9 F     2.500000000000E-01 -2.500000000000E-01  2.500000000000E-01
   4 F   9 F    -2.500000000000E-01  2.500000000000E-01 -2.500000000000E-01
   5 F   9 F     2.500000000000E-01  2.500000000000E-01 -2.500000000000E-01
   6 F   9 F    -2.500000000000E-01 -2.500000000000E-01  2.500000000000E-01
   7 T   9 F    -2.500000000000E-01 -2.500000000000E-01 -2.500000000000E-01
   8 F   9 F     2.500000000000E-01  2.500000000000E-01  2.500000000000E-01
   9 T  19 K     2.500000000000E-01 -2.500000000000E-01 -2.500000000000E-01
  10 F  19 K    -2.500000000000E-01  2.500000000000E-01  2.500000000000E-01

 T = ATOM BELONGING TO THE ASYMMETRIC UNIT

 ****   16 SYMMOPS - TRANSLATORS IN FRACTIONAL UNITS
 **** MATRICES AND TRANSLATORS IN THE CRYSTALLOGRAPHIC REFERENCE FRAME
   V INV                    ROTATION MATRICES                   TRANSLATORS
   1   1  1.00  0.00  0.00  0.00  1.00  0.00  0.00  0.00  1.00  0.00  0.00  0.00
   2   2 -1.00  1.00  1.00  0.00  0.00  1.00  0.00  1.00  0.00  0.00  0.00  0.00
   3   3  0.00 -1.00  0.00 -1.00  0.00  0.00  1.00 -1.00 -1.00  0.00  0.00  0.00
   4   4  0.00  0.00 -1.00  1.00 -1.00 -1.00 -1.00  0.00  0.00  0.00  0.00  0.00
   5   5 -1.00  0.00  0.00  0.00  0.00 -1.00  0.00 -1.00  0.00  0.00  0.00  0.00
   6   6  1.00 -1.00 -1.00  0.00 -1.00  0.00  0.00  0.00 -1.00  0.00  0.00  0.00
   7   8  0.00  1.00  0.00 -1.00  1.00  1.00  1.00  0.00  0.00  0.00  0.00  0.00
   8   7  0.00  0.00  1.00  1.00  0.00  0.00 -1.00  1.00  1.00  0.00  0.00  0.00
   9   9 -1.00  0.00  0.00  0.00 -1.00  0.00  0.00  0.00 -1.00  0.00  0.00  0.00
  10  10  1.00 -1.00 -1.00  0.00  0.00 -1.00  0.00 -1.00  0.00  0.00  0.00  0.00
  11  11  0.00  1.00  0.00  1.00  0.00  0.00 -1.00  1.00  1.00  0.00  0.00  0.00
  12  12  0.00  0.00  1.00 -1.00  1.00  1.00  1.00  0.00  0.00  0.00  0.00  0.00
  13  13  1.00  0.00  0.00  0.00  0.00  1.00  0.00  1.00  0.00  0.00  0.00  0.00
  14  14 -1.00  1.00  1.00  0.00  1.00  0.00  0.00  0.00  1.00  0.00  0.00  0.00
  15  16  0.00 -1.00  0.00  1.00 -1.00 -1.00 -1.00  0.00  0.00  0.00  0.00  0.00
  16  15  0.00  0.00 -1.00 -1.00  0.00  0.00  1.00 -1.00 -1.00  0.00  0.00  0.00

 DIRECT LATTICE VECTORS CARTESIAN COMPONENTS (ANGSTROM)
          X                    Y                    Z
  -0.407100000000E+01  -0.407100000000E+01   0.000000000000E+00
   0.407100000000E+01   0.000000000000E+00   0.407100000407E+01
   0.000000000000E+00   0.407100000000E+01   0.407100000407E+01


 CARTESIAN COORDINATES - PRIMITIVE CELL
 *******************************************************************************
 *      ATOM          X(ANGSTROM)         Y(ANGSTROM)         Z(ANGSTROM)
 *******************************************************************************
    1    27 CO    0.000000000000E+00  0.000000000000E+00  0.000000000000E+00
    2    27 CO    0.000000000000E+00  0.000000000000E+00  4.071000004071E+00
    3     9 F    -2.035500000000E+00  7.050056649138E-16  0.000000000000E+00
    4     9 F     2.035500000000E+00  7.050056649138E-16  9.400075532184E-16
    5     9 F     7.050056649138E-16 -2.035500000000E+00  0.000000000000E+00
    6     9 F     7.050056649138E-16  2.035500000000E+00  9.400075532184E-16
    7     9 F    -4.700037766092E-16 -4.700037766092E-16 -2.035500002036E+00
    8     9 F     4.700037766092E-16  4.700037766092E-16  2.035500002036E+00
    9    19 K    -2.035500000000E+00 -2.035500000000E+00 -2.035500002036E+00
   10    19 K     2.035500000000E+00  2.035500000000E+00  2.035500002036E+00

 *******************************************************************************
 LOCAL ATOMIC FUNCTIONS BASIS SET
 *******************************************************************************
   ATOM   X(AU)   Y(AU)   Z(AU)  N. TYPE  EXPONENT  S COEF   P COEF   D/F/G COEF
 *******************************************************************************
   1 CO   0.000   0.000   0.000
                                  1 S  
                                         3.417E+05 2.270E-04 0.000E+00 0.000E+00
                                         4.885E+04 1.929E-03 0.000E+00 0.000E+00
                                         1.040E+04 1.110E-02 0.000E+00 0.000E+00
                                         2.719E+03 5.010E-02 0.000E+00 0.000E+00
                                         8.197E+02 1.705E-01 0.000E+00 0.000E+00
                                         2.839E+02 3.692E-01 0.000E+00 0.000E+00
                                         1.110E+02 4.033E-01 0.000E+00 0.000E+00
                                         4.648E+01 1.433E-01 0.000E+00 0.000E+00
                             2-   5 SP 
                                         8.556E+02-5.400E-03 8.800E-03 0.000E+00
                                         2.065E+02-6.840E-02 6.200E-02 0.000E+00
                                         6.905E+01-1.316E-01 2.165E-01 0.000E+00
                                         2.727E+01 2.616E-01 4.095E-01 0.000E+00
                                         1.154E+01 6.287E-01 3.932E-01 0.000E+00
                                         4.202E+00 2.706E-01 2.250E-01 0.000E+00
                             6-   9 SP 
                                         5.155E+01 1.820E-02-2.870E-02 0.000E+00
                                         1.891E+01-2.432E-01-9.370E-02 0.000E+00
                                         7.725E+00-8.490E-01 2.036E-01 0.000E+00
                                         3.543E+00 8.264E-01 1.419E+00 0.000E+00
                            10-  13 SP 
                                         1.491E+00 1.000E+00 1.000E+00 0.000E+00
                            14-  17 SP 
                                         6.031E-01 1.000E+00 1.000E+00 0.000E+00
                            18-  22 D  
                                         2.990E+01 0.000E+00 0.000E+00 6.170E-02
                                         8.116E+00 0.000E+00 0.000E+00 2.835E-01
                                         2.643E+00 0.000E+00 0.000E+00 5.290E-01
                                         8.869E-01 0.000E+00 0.000E+00 4.976E-01
                            23-  27 D  
                                         3.011E-01 0.000E+00 0.000E+00 1.000E+00
   2 CO   0.000   0.000   7.693
   3 F   -3.847   0.000   0.000
                                 55 S  
                                         1.377E+04 8.770E-04 0.000E+00 0.000E+00
                                         1.590E+03 9.150E-03 0.000E+00 0.000E+00
                                         3.265E+02 4.860E-02 0.000E+00 0.000E+00
                                         9.166E+01 1.691E-01 0.000E+00 0.000E+00
                                         3.046E+01 3.708E-01 0.000E+00 0.000E+00
                                         1.150E+01 4.165E-01 0.000E+00 0.000E+00
                                         4.760E+00 1.306E-01 0.000E+00 0.000E+00
                            56-  59 SP 
                                         1.900E+01-1.094E-01 1.244E-01 0.000E+00
                                         4.530E+00-1.289E-01 5.323E-01 0.000E+00
                                         1.387E+00 1.000E+00 1.000E+00 0.000E+00
                            60-  63 SP 
                                         4.400E-01 1.000E+00 1.000E+00 0.000E+00
                            64-  67 SP 
                                         1.790E-01 1.000E+00 1.000E+00 0.000E+00
   4 F    3.847   0.000   0.000
   5 F    0.000  -3.847   0.000
   6 F    0.000   3.847   0.000
   7 F    0.000   0.000  -3.847
   8 F    0.000   0.000   3.847
   9 K   -3.847  -3.847  -3.847
                                133 S  
                                         1.725E+05 2.200E-04 0.000E+00 0.000E+00
                                         2.432E+04 1.920E-03 0.000E+00 0.000E+00
                                         5.140E+03 1.109E-02 0.000E+00 0.000E+00
                                         1.344E+03 4.992E-02 0.000E+00 0.000E+00
                                         4.045E+02 1.702E-01 0.000E+00 0.000E+00
                                         1.394E+02 3.679E-01 0.000E+00 0.000E+00
                                         5.439E+01 4.036E-01 0.000E+00 0.000E+00
                                         2.271E+01 1.459E-01 0.000E+00 0.000E+00
                           134- 137 SP 
                                         4.020E+02-6.030E-03 8.410E-03 0.000E+00
                                         9.350E+01-8.050E-02 6.020E-02 0.000E+00
                                         3.075E+01-1.094E-01 2.117E-01 0.000E+00
                                         1.192E+01 2.580E-01 3.726E-01 0.000E+00
                                         5.167E+00 6.840E-01 4.022E-01 0.000E+00
                                         1.582E+00 3.990E-01 1.860E-01 0.000E+00
                           138- 141 SP 
                                         1.735E+01-7.400E-03-3.210E-02 0.000E+00
                                         7.550E+00-1.290E-01-6.200E-02 0.000E+00
                                         2.939E+00-6.834E-01 1.691E-01 0.000E+00
                                         1.190E+00 1.080E+00 1.500E+00 0.000E+00
                                         6.740E-01 1.030E+00 1.060E+00 0.000E+00
                           142- 145 SP 
                                         3.890E-01 1.000E+00 1.000E+00 0.000E+00
                           146- 149 SP 
                                         2.160E-01 1.000E+00 1.000E+00 0.000E+00
  10 K    3.847   3.847   3.847
 INFORMATION **** SET_MPP **** PCRYSTAL CALCULATION
 INFORMATION **** READM2 **** NEW DEFAULT: FOCK/KS MATRIX MIXING SET TO 30 %
 INFORMATION **** READM2 **** NEW DEFAULT: FULL DIRECT SCF MODE
 INFORMATION **** READM2 **** NEW DEFAULT: COULOMB BIPOLAR BUFFER SET TO 32 Mb
 INFORMATION **** READM2 **** NEW DEFAULT: EXCHANGE BIPOLAR BUFFER SET TO 32 Mb
 INFORMATION **** UHF **** SPIN POLARIZED SOLUTIONS ALLOWED
 INFORMATION **** TOLINTEG **** COULOMB AND EXCHANGE SERIES TOLERANCES MODIFIED
 INFORMATION **** TOLDEE **** SCF TOL ON TOTAL ENERGY SET TO           7
 INFORMATION **** SPINLOCK **** LOCK IN A GIVEN SPIN STATE
 ALPHA-BETA ELECTRONS LOCKED TO   6 FOR  30 SCF CYCLES
 INFORMATION **** LEVSHIFT **** LEVEL SHIFTER ACTIVE


 *******************************************************************************
 * FOCK MATRIX DIAGONAL ELEMENT SHIFT (A.U.)
 *******************************************************************************
    ATOM   SHELL   A.O.      SHIFT(ALPHA)    SHIFT(BETA)
      1      6      5         0.000E+00       3.000E-01
      2      6      5         0.000E+00       3.000E-01
 INFORMATION **** MULPOPAN ****  MULLIKEN POPULATION ANALYSIS AT THE END OF SCF
 INFORMATION **** MAXCYCLE **** MAX NUMBER OF SCF CYCLES SET TO         100
 *******************************************************************************
 N. OF ATOMS PER CELL        10  COULOMB OVERLAP TOL         (T1) 10**   -7
 NUMBER OF SHELLS            48  COULOMB PENETRATION TOL     (T2) 10**   -7
 NUMBER OF AO               166  EXCHANGE OVERLAP TOL        (T3) 10**   -7
 N. OF ELECTRONS PER CELL   146  EXCHANGE PSEUDO OVP (F(G))  (T4) 10**   -7
 CORE ELECTRONS PER CELL     84  EXCHANGE PSEUDO OVP (P(G))  (T5) 10**  -14
 N. OF SYMMETRY OPERATORS    16  POLE ORDER IN MONO ZONE                  4
 *******************************************************************************
 TYPE OF CALCULATION :  UNRESTRICTED OPEN SHELL
 HARTREE-FOCK HAMILTONIAN
 EIGENVALUE LEVEL SHIFTING OF  0.300 HARTREE
 LOCKING - FERMI ENERGY ALTERED BY LEVEL SHIFTER
 SPIN POLARIZATION - ALPHA-BETA =  6 FOR  30 CYCLES

 CAPPA:IS1  4;IS2  4;IS3  4; K PTS MONK NET  13; SYMMOPS:K SPACE  16;G SPACE  16

 *******************************************************************************
 MAX NUMBER OF SCF CYCLES     100  CONVERGENCE ON DELTAP        10**-17
 WEIGHT OF F(I) IN F(I+1)      30% CONVERGENCE ON ENERGY        10**- 7
 EIGENVALUE LEVEL SHIFTING OF  0.300 HARTREE
 LOCKING - FERMI ENERGY ALTERED BY LEVEL SHIFTER
 SPIN POLARIZATION - ALPHA-BETA =  6 FOR  30 CYCLES
 SHRINK. FACT.(MONKH.)    4  4  4  NUMBER OF K POINTS IN THE IBZ     13
 SHRINKING FACTOR(GILAT NET)    4  NUMBER OF K POINTS(GILAT NET)     13
 *******************************************************************************
 *** K POINTS COORDINATES (OBLIQUE COORDINATES IN UNITS OF IS =  4)
   1-R(  0  0  0)   2-C(  1  0  0)   3-R(  2  0  0)   4-C(  1  1  0)
   5-C(  2  1  0)   6-C(  3  1  0)   7-R(  2  2  0)   8-C(  0  1  1)
   9-C(  1  1  1)  10-C(  2  1  1)  11-C(  1  2  1)  12-C(  2  3  1)
  13-R(  0  2  2)

 DIRECT LATTICE VECTORS COMPON. (A.U.)     RECIP. LATTICE VECTORS COMPON. (A.U.) 
        X            Y            Z              X            Y            Z
   -7.6930751   -7.6930751    0.0000000     -0.4083663   -0.4083663    0.4083663
    7.6930751    0.0000000    7.6930751      0.4083663   -0.4083663    0.4083663
    0.0000000    7.6930751    7.6930751     -0.4083663    0.4083663    0.4083663

 DISK SPACE FOR EIGENVECTORS (FTN 10)      606232 REALS

 SYMMETRY ADAPTION OF THE BLOCH FUNCTIONS ENABLED

 MATRIX SIZE: P(G)  221370, F(G)   40210, P(G) IRR   14908, F(G) IRR    6899
 MAX G-VECTOR INDEX FOR 1- AND 2-ELECTRON INTEGRALS 133

 TTTTTTTTTTTTTTTTTTTTTTTTTTTTTT INPUT       TELAPSE        0.01 TCPU        0.01

 NEIGHBORS OF THE NON-EQUIVALENT ATOMS

 N = NUMBER OF NEIGHBORS AT DISTANCE R
    ATOM  N     R/ANG      R/AU   NEIGHBORS (ATOM LABELS AND CELL INDICES)
   1 CO   6     2.0355     3.8465    3 F    0 0 0    4 F    0 0 0    5 F    0 0 0
                                     6 F    0 0 0    7 F    0 0 0    8 F    0 0 0
   1 CO   8     3.5256     6.6624    9 K    0 0 0    9 K   -1 0 0    9 K    0 1 0
                                     9 K    0 0 1   10 K    0 0 0   10 K    1 0 0
                                    10 K    0-1 0   10 K    0 0-1
   1 CO   4     4.0710     7.6931    2 CO  -1-1 0    2 CO  -1 0-1    2 CO   0-1 0
                                     2 CO   0 0-1
   1 CO   2     4.0710     7.6931    2 CO   0 0 0    2 CO  -1-1-1
   1 CO  16     4.5515     8.6011    3 F   -1 0 0    3 F    0 1-1    4 F    1 0 0
                                     4 F    0-1 1    5 F   -1 0 0    5 F    0-1 1
                                     6 F    1 0 0    6 F    0 1-1    7 F    1 1 0
                                     7 F    1 0 1    7 F    0 1 0    7 F    0 0 1
                                     8 F   -1-1 0    8 F   -1 0-1    8 F    0-1 0
                                     8 F    0 0-1
   1 CO   8     4.5515     8.6011    3 F   -1 0-1    3 F    0 1 0    4 F    1 0 1
                                     4 F    0-1 0    5 F   -1-1 0    5 F    0 0 1
                                     6 F    1 1 0    6 F    0 0-1

   2 CO   6     2.0355     3.8465    3 F    0 1 0    4 F    1 0 1    5 F    0 0 1
                                     6 F    1 1 0    7 F    1 1 1    8 F    0 0 0
   2 CO   8     3.5256     6.6624    9 K    0 1 0    9 K    0 0 1    9 K    1 1 1
                                     9 K    0 1 1   10 K    1 1 0   10 K    1 0 1
                                    10 K    0 0 0   10 K    1 0 0
   2 CO   4     4.0710     7.6931    1 CO   1 1 0    1 CO   1 0 1    1 CO   0 1 0
                                     1 CO   0 0 1
   2 CO   2     4.0710     7.6931    1 CO   0 0 0    1 CO   1 1 1
   2 CO  16     4.5515     8.6011    3 F    1 1 0    3 F    0 0 1    4 F    0 0 1
                                     4 F    1 1 0    5 F    1 0 1    5 F    0 1 0
                                     6 F    0 1 0    6 F    1 0 1    7 F    1 1 0
                                     7 F    1 0 1    7 F    0 1 0    7 F    0 0 1
                                     8 F    0 0 1    8 F    1 0 1    8 F    0 1 0
                                     8 F    1 1 0
   2 CO   8     4.5515     8.6011    3 F    0 0 0    3 F    1 1 1    4 F    0 0 0
                                     4 F    1 1 1    5 F    1 1 1    5 F    0 0 0
                                     6 F    1 1 1    6 F    0 0 0

   3 F    2     2.0355     3.8465    1 CO   0 0 0    2 CO   0-1 0
   3 F    8     2.8786     5.4398    5 F    0 0 0    5 F    0-1 1    6 F    0 0 0
                                     6 F    1 0 0    7 F    0 0 0    7 F    1 0 1
                                     8 F    0 0 0    8 F    0-1 0
   3 F    4     2.8786     5.4398    9 K    0 0 0    9 K    0 0 1   10 K    1 0 0
                                    10 K    0-1 0
   3 F    4     4.0710     7.6931    4 F    0 0 0    4 F    1 0 0    4 F    0-1 1
                                     4 F    1-1 1
   3 F    2     4.0710     7.6931    4 F    1 0 1    4 F    0-1 0
   3 F    4     4.5515     8.6011    1 CO   1 0 0    1 CO   0-1 1    2 CO  -1-1 0
                                     2 CO   0 0-1

   7 F    2     2.0355     3.8465    1 CO   0 0 0    2 CO  -1-1-1
   7 F    4     2.8786     5.4398    9 K    0 0 0    9 K   -1 0 0   10 K    0 0-1
                                    10 K    0-1 0
   7 F    8     2.8786     5.4398    3 F    0 0 0    3 F   -1 0-1    4 F    0 0 0
                                     4 F    0-1 0    5 F    0 0 0    5 F   -1-1 0
                                     6 F    0 0 0    6 F    0 0-1
   7 F    4     4.0710     7.6931    8 F   -1-1 0    8 F   -1 0-1    8 F    0-1 0
                                     8 F    0 0-1
   7 F    2     4.0710     7.6931    8 F    0 0 0    8 F   -1-1-1
   7 F    8     4.5515     8.6011    1 CO  -1-1 0    1 CO  -1 0-1    1 CO   0-1 0
                                     1 CO   0 0-1    2 CO  -1-1 0    2 CO  -1 0-1
                                     2 CO   0-1 0    2 CO   0 0-1

   9 K   12     2.8786     5.4398    7 F    0 0 0    7 F    1 0 0    8 F    0 0-1
                                     8 F    0-1 0    3 F    0 0 0    3 F    0 0-1
                                     4 F    1 0 0    4 F    0-1 0    5 F    0 0 0
                                     5 F    0-1 0    6 F    1 0 0    6 F    0 0-1
   9 K    8     3.5256     6.6624    1 CO   0 0 0    1 CO   1 0 0    1 CO   0-1 0
                                     1 CO   0 0-1    2 CO   0-1 0    2 CO   0 0-1
                                     2 CO  -1-1-1    2 CO   0-1-1
   9 K    4     4.0710     7.6931   10 K    0-1 0   10 K    0 0-1   10 K    1 0-1
                                    10 K    1-1 0
   9 K    2     4.0710     7.6931   10 K    1 0 0   10 K    0-1-1
   9 K   24     4.9859     9.4221    3 F   -1 0-1    3 F    1 0 0    3 F    0-1 0
                                     3 F    0 1-1    4 F    1-1 0    4 F    0 0 0
                                     4 F    0 0-1    4 F    1-1 1    5 F   -1-1 0
                                     5 F    1 0 0    5 F    0 0-1    5 F    0-1 1
                                     6 F    1 0-1    6 F    0 0 0    6 F    0-1 0
                                     6 F    1 1-1    7 F    1 1 0    7 F    1 0 1
                                     7 F    0-1 0    7 F    0 0-1    8 F   -1-1-1
                                     8 F    0-1-1    8 F    1 0 0    8 F    0 0 0
   9 K    4     5.7573    10.8797    9 K   -1 0 0    9 K    1 0 0    9 K    0-1 1
                                     9 K    0 1-1


 SYMMETRY ALLOWED INTERNAL DEGREE(S) OF FREEDOM:   2
 TTTTTTTTTTTTTTTTTTTTTTTTTTTTTT SYMM        TELAPSE        0.02 TCPU        0.02
 TTTTTTTTTTTTTTTTTTTTTTTTTTTTTT INT_SCREEN  TELAPSE        0.02 TCPU        0.02
 INFORMATION **** EXCBUF **** EXCH. BIPO BUFFER: WORDS USED =      731169
 TTTTTTTTTTTTTTTTTTTTTTTTTTTTTT INT_CALC    TELAPSE        0.04 TCPU        0.04
 EEEEEEEEEE INT_CALC TERMINATION  DATE 09 12 2014 TIME 10:53:00.9

 *******************************************************************************
 KCoF3 base all-electron ferro 4 4 4                                             
 CRYSTAL - SCF - TYPE OF CALCULATION :  UNRESTRICTED OPEN SHELL
 *******************************************************************************

 CAPPA:IS1  4;IS2  4;IS3  4; K PTS MONK NET  13; SYMMOPS:K SPACE  16;G SPACE  16

 TTTTTTTTTTTTTTTTTTTTTTTTTTTTTT SDIK        TELAPSE        0.08 TCPU        0.09

 AAAAAAAAAAAAAAAAAAAAAAAAAAAAAAAAAAAAAAAAAAAAAAAAAAAAAAAAAAAAAAAAAAAAAAAAAAAAAAA
         ATOMIC WAVEFUNCTION(S)


 NUCLEAR CHARGE 27.0  SYMMETRY SPECIES            S    P    D
 N. ELECTRONS   25.0  NUMBER OF PRIMITIVE GTOS   20   12    5
                      NUMBER OF CONTRACTED GTOS   5    4    2
                      NUMBER OF CLOSED SHELLS     3    2    0
                      OPEN SHELL OCCUPATION       0    0    7

  ZNUC SCFIT  TOTAL HF ENERGY   KINETIC ENERGY   VIRIAL THEOREM ACCURACY
  27.0  18   -1.380502477E+03  1.380054440E+03 -2.000324651E+00  4.9E-06

 NUCLEAR CHARGE  9.0  SYMMETRY SPECIES            S    P
 N. ELECTRONS   10.0  NUMBER OF PRIMITIVE GTOS   12    5
                      NUMBER OF CONTRACTED GTOS   4    3
                      NUMBER OF CLOSED SHELLS     2    1
                      OPEN SHELL OCCUPATION       0    0

  ZNUC SCFIT  TOTAL HF ENERGY   KINETIC ENERGY   VIRIAL THEOREM ACCURACY
   9.0  28   -9.941465138E+01  9.937084613E+01 -2.000440826E+00  3.8E-06

 NUCLEAR CHARGE 19.0  SYMMETRY SPECIES            S    P
 N. ELECTRONS   18.0  NUMBER OF PRIMITIVE GTOS   21   13
                      NUMBER OF CONTRACTED GTOS   5    4
                      NUMBER OF CLOSED SHELLS     3    2
                      OPEN SHELL OCCUPATION       0    0

  ZNUC SCFIT  TOTAL HF ENERGY   KINETIC ENERGY   VIRIAL THEOREM ACCURACY
  19.0   8   -5.989803225E+02  5.986852286E+02 -2.000492903E+00  1.3E-06

 AAAAAAAAAAAAAAAAAAAAAAAAAAAAAAAAAAAAAAAAAAAAAAAAAAAAAAAAAAAAAAAAAAAAAAAAAAAAAAA

 CHARGE NORMALIZATION FACTOR   1.00000000
 TOTAL ATOMIC CHARGES:
  25.0000000  25.0000000  10.0000000  10.0000000  10.0000000  10.0000000
  10.0000000  10.0000000  18.0000000  18.0000000
 SUMMED SPIN DENSITY           0.00000000
 TOTAL ATOMIC SPINS  :
   0.0000000   0.0000000   0.0000000   0.0000000   0.0000000   0.0000000
   0.0000000   0.0000000   0.0000000   0.0000000
 TTTTTTTTTTTTTTTTTTTTTTTTTTTTTT MOQGAD      TELAPSE        0.12 TCPU        0.13
 TTTTTTTTTTTTTTTTTTTTTTTTTTTTTT SHELLX2     TELAPSE       10.93 TCPU       10.94
 TTTTTTTTTTTTTTTTTTTTTTTTTTTTTT MONMO3      TELAPSE       11.12 TCPU       11.12
 CYC   0 ETOT(AU) -4.557446858074E+03 DETOT -4.56E+03 tst  0.00E+00 PX  1.00E+00
 TTTTTTTTTTTTTTTTTTTTTTTTTTTTTT FDIK        TELAPSE       11.43 TCPU       11.44

    ALPHA      ELECTRONS
 INSULATING STATE - LEVEL SHIFTER    0.30 au
 TOP OF VALENCE BANDS -    BAND     76; K    1; EIG -1.0000000E+00 AU
 BOTTOM OF VIRTUAL BANDS - BAND     77; K    1; EIG  1.0000000E+00 AU

    BETA       ELECTRONS
 INSULATING STATE - LEVEL SHIFTER    0.30 au
 TOP OF VALENCE BANDS -    BAND     70; K    1; EIG -1.0000000E+00 AU
 BOTTOM OF VIRTUAL BANDS - BAND     71; K    1; EIG  1.0000000E+00 AU
 TTTTTTTTTTTTTTTTTTTTTTTTTTTTTT PDIG        TELAPSE       11.47 TCPU       11.48
 CHARGE NORMALIZATION FACTOR   0.99978600
 TOTAL ATOMIC CHARGES:
  25.3905315  25.3905315   9.8677203   9.8677203   9.8677203   9.8677203
   9.8792514   9.8792514  17.9947766  17.9947766
 SUMMED SPIN DENSITY           5.96747272
 TOTAL ATOMIC SPINS  :
   2.7019245   2.7019245   0.0978563   0.0978563   0.0978563   0.0978563
   0.0863251   0.0863251  -0.0002258  -0.0002258
 TTTTTTTTTTTTTTTTTTTTTTTTTTTTTT MOQGAD      TELAPSE       11.51 TCPU       11.52
 TTTTTTTTTTTTTTTTTTTTTTTTTTTTTT SHELLX2     TELAPSE       23.40 TCPU       23.41
 TTTTTTTTTTTTTTTTTTTTTTTTTTTTTT MONMO3      TELAPSE       23.58 TCPU       23.59
 CYC   1 ETOT(AU) -4.557418997388E+03 DETOT  2.79E-02 tst  0.00E+00 PX  1.00E+00
 TTTTTTTTTTTTTTTTTTTTTTTTTTTTTT FDIK        TELAPSE       23.68 TCPU       23.70

    ALPHA      ELECTRONS
 INSULATING STATE - LEVEL SHIFTER    0.30 au
 TOP OF VALENCE BANDS -    BAND     76; K    1; EIG -1.0000000E+00 AU
 BOTTOM OF VIRTUAL BANDS - BAND     77; K    1; EIG  1.0000000E+00 AU

    BETA       ELECTRONS
 INSULATING STATE - LEVEL SHIFTER    0.30 au
 TOP OF VALENCE BANDS -    BAND     70; K    1; EIG -1.0000000E+00 AU
 BOTTOM OF VIRTUAL BANDS - BAND     71; K    1; EIG  1.0000000E+00 AU
 TTTTTTTTTTTTTTTTTTTTTTTTTTTTTT PDIG        TELAPSE       23.72 TCPU       23.73
 CHARGE NORMALIZATION FACTOR   1.00000000
 TOTAL ATOMIC CHARGES:
  25.2923043  25.2922861   9.8993636   9.8993636   9.8993636   9.8993636
   9.9097443   9.9097443  17.9992334  17.9992334
 SUMMED SPIN DENSITY           6.00000000
 TOTAL ATOMIC SPINS  :
   2.8051730   2.8051934   0.0686483   0.0686483   0.0686483   0.0686483
   0.0580595   0.0580595  -0.0005392  -0.0005392
 TTTTTTTTTTTTTTTTTTTTTTTTTTTTTT MOQGAD      TELAPSE       23.76 TCPU       23.77
 TTTTTTTTTTTTTTTTTTTTTTTTTTTTTT SHELLX2     TELAPSE       35.44 TCPU       35.46
 TTTTTTTTTTTTTTTTTTTTTTTTTTTTTT MONMO3      TELAPSE       35.62 TCPU       35.64
 CYC   2 ETOT(AU) -4.558223673306E+03 DETOT -8.05E-01 tst  2.54E-02 PX  9.99E-02
 TTTTTTTTTTTTTTTTTTTTTTTTTTTTTT FDIK        TELAPSE       35.73 TCPU       35.75

    ALPHA      ELECTRONS
 INSULATING STATE - LEVEL SHIFTER    0.30 au
 TOP OF VALENCE BANDS -    BAND     76; K    1; EIG -1.0000000E+00 AU
 BOTTOM OF VIRTUAL BANDS - BAND     77; K    1; EIG  1.0000000E+00 AU

    BETA       ELECTRONS
 INSULATING STATE - LEVEL SHIFTER    0.30 au
 TOP OF VALENCE BANDS -    BAND     70; K    1; EIG -1.0000000E+00 AU
 BOTTOM OF VIRTUAL BANDS - BAND     71; K    1; EIG  1.0000000E+00 AU
 TTTTTTTTTTTTTTTTTTTTTTTTTTTTTT PDIG        TELAPSE       35.77 TCPU       35.79
 CHARGE NORMALIZATION FACTOR   1.00000000
 TOTAL ATOMIC CHARGES:
  25.2406347  25.2406471   9.9169358   9.9169358   9.9169358   9.9169358
   9.9261448   9.9261448  17.9993428  17.9993428
 SUMMED SPIN DENSITY           6.00000000
 TOTAL ATOMIC SPINS  :
   2.8612927   2.8612933   0.0494235   0.0494235   0.0494235   0.0494235
   0.0403399   0.0403399  -0.0004798  -0.0004798
 TTTTTTTTTTTTTTTTTTTTTTTTTTTTTT MOQGAD      TELAPSE       35.80 TCPU       35.82
 TTTTTTTTTTTTTTTTTTTTTTTTTTTTTT SHELLX2     TELAPSE       47.44 TCPU       47.46
 TTTTTTTTTTTTTTTTTTTTTTTTTTTTTT MONMO3      TELAPSE       47.62 TCPU       47.64
 CYC   3 ETOT(AU) -4.558263042221E+03 DETOT -3.94E-02 tst  7.85E-03 PX  3.40E-02
 TTTTTTTTTTTTTTTTTTTTTTTTTTTTTT FDIK        TELAPSE       47.72 TCPU       47.75

    ALPHA      ELECTRONS
 INSULATING STATE - LEVEL SHIFTER    0.30 au
 TOP OF VALENCE BANDS -    BAND     76; K    1; EIG -1.0000000E+00 AU
 BOTTOM OF VIRTUAL BANDS - BAND     77; K    1; EIG  1.0000000E+00 AU

    BETA       ELECTRONS
 INSULATING STATE - LEVEL SHIFTER    0.30 au
 TOP OF VALENCE BANDS -    BAND     70; K    1; EIG -1.0000000E+00 AU
 BOTTOM OF VIRTUAL BANDS - BAND     71; K    1; EIG  1.0000000E+00 AU
 TTTTTTTTTTTTTTTTTTTTTTTTTTTTTT PDIG        TELAPSE       47.76 TCPU       47.79
 CHARGE NORMALIZATION FACTOR   1.00000000
 TOTAL ATOMIC CHARGES:
  25.2139626  25.2139535   9.9261646   9.9261646   9.9261646   9.9261646
   9.9347089   9.9347089  17.9990039  17.9990039
 SUMMED SPIN DENSITY           6.00000000
 TOTAL ATOMIC SPINS  :
   2.8921070   2.8921147   0.0388327   0.0388327   0.0388327   0.0388327
   0.0306683   0.0306683  -0.0004445  -0.0004445
 TTTTTTTTTTTTTTTTTTTTTTTTTTTTTT MOQGAD      TELAPSE       47.80 TCPU       47.82
 TTTTTTTTTTTTTTTTTTTTTTTTTTTTTT SHELLX2     TELAPSE       59.42 TCPU       59.45
 TTTTTTTTTTTTTTTTTTTTTTTTTTTTTT MONMO3      TELAPSE       59.59 TCPU       59.63
 CYC   4 ETOT(AU) -4.558275289403E+03 DETOT -1.22E-02 tst  2.58E-03 PX  1.59E-02
 TTTTTTTTTTTTTTTTTTTTTTTTTTTTTT FDIK        TELAPSE       59.70 TCPU       59.74

    ALPHA      ELECTRONS
 INSULATING STATE - LEVEL SHIFTER    0.30 au
 TOP OF VALENCE BANDS -    BAND     76; K    1; EIG -1.0000000E+00 AU
 BOTTOM OF VIRTUAL BANDS - BAND     77; K    1; EIG  1.0000000E+00 AU

    BETA       ELECTRONS
 INSULATING STATE - LEVEL SHIFTER    0.30 au
 TOP OF VALENCE BANDS -    BAND     70; K    1; EIG -1.0000000E+00 AU
 BOTTOM OF VIRTUAL BANDS - BAND     71; K    1; EIG  1.0000000E+00 AU
 TTTTTTTTTTTTTTTTTTTTTTTTTTTTTT PDIG        TELAPSE       59.74 TCPU       59.77
 CHARGE NORMALIZATION FACTOR   1.00000000
 TOTAL ATOMIC CHARGES:
  25.1996719  25.1996673   9.9311523   9.9311523   9.9311523   9.9311523
   9.9392338   9.9392338  17.9987921  17.9987921
 SUMMED SPIN DENSITY           6.00000000
 TOTAL ATOMIC SPINS  :
   2.9093442   2.9093481   0.0328668   0.0328668   0.0328668   0.0328668
   0.0253473   0.0253473  -0.0004271  -0.0004271
 TTTTTTTTTTTTTTTTTTTTTTTTTTTTTT MOQGAD      TELAPSE       59.77 TCPU       59.81
 TTTTTTTTTTTTTTTTTTTTTTTTTTTTTT SHELLX2     TELAPSE       71.41 TCPU       71.45
 TTTTTTTTTTTTTTTTTTTTTTTTTTTTTT MONMO3      TELAPSE       71.60 TCPU       71.64
 CYC   5 ETOT(AU) -4.558279162234E+03 DETOT -3.87E-03 tst  8.31E-04 PX  7.97E-03
 TTTTTTTTTTTTTTTTTTTTTTTTTTTTTT FDIK        TELAPSE       71.72 TCPU       71.76

    ALPHA      ELECTRONS
 INSULATING STATE - LEVEL SHIFTER    0.30 au
 TOP OF VALENCE BANDS -    BAND     76; K    1; EIG -1.0000000E+00 AU
 BOTTOM OF VIRTUAL BANDS - BAND     77; K    1; EIG  1.0000000E+00 AU

    BETA       ELECTRONS
 INSULATING STATE - LEVEL SHIFTER    0.30 au
 TOP OF VALENCE BANDS -    BAND     70; K    1; EIG -1.0000000E+00 AU
 BOTTOM OF VIRTUAL BANDS - BAND     71; K    1; EIG  1.0000000E+00 AU
 TTTTTTTTTTTTTTTTTTTTTTTTTTTTTT PDIG        TELAPSE       71.76 TCPU       71.80
 CHARGE NORMALIZATION FACTOR   1.00000000
 TOTAL ATOMIC CHARGES:
  25.1916889  25.1916864   9.9339696   9.9339696   9.9339696   9.9339696
   9.9417504   9.9417504  17.9986227  17.9986227
 SUMMED SPIN DENSITY           6.00000000
 TOTAL ATOMIC SPINS  :
   2.9192605   2.9192625   0.0294115   0.0294115   0.0294115   0.0294115
   0.0223244   0.0223244  -0.0004090  -0.0004090
 TTTTTTTTTTTTTTTTTTTTTTTTTTTTTT MOQGAD      TELAPSE       71.80 TCPU       71.84
 TTTTTTTTTTTTTTTTTTTTTTTTTTTTTT SHELLX2     TELAPSE       83.43 TCPU       83.47
 TTTTTTTTTTTTTTTTTTTTTTTTTTTTTT MONMO3      TELAPSE       83.60 TCPU       83.65
 CYC   6 ETOT(AU) -4.558280440987E+03 DETOT -1.28E-03 tst  2.79E-04 PX  4.17E-03
 TTTTTTTTTTTTTTTTTTTTTTTTTTTTTT FDIK        TELAPSE       83.71 TCPU       83.76

    ALPHA      ELECTRONS
 INSULATING STATE - LEVEL SHIFTER    0.30 au
 TOP OF VALENCE BANDS -    BAND     76; K    1; EIG -1.0000000E+00 AU
 BOTTOM OF VIRTUAL BANDS - BAND     77; K    1; EIG  1.0000000E+00 AU

    BETA       ELECTRONS
 INSULATING STATE - LEVEL SHIFTER    0.30 au
 TOP OF VALENCE BANDS -    BAND     70; K    1; EIG -1.0000000E+00 AU
 BOTTOM OF VIRTUAL BANDS - BAND     71; K    1; EIG  1.0000000E+00 AU
 TTTTTTTTTTTTTTTTTTTTTTTTTTTTTT PDIG        TELAPSE       83.75 TCPU       83.80
 CHARGE NORMALIZATION FACTOR   1.00000000
 TOTAL ATOMIC CHARGES:
  25.1871180  25.1871159   9.9355831   9.9355831   9.9355831   9.9355831
   9.9431921   9.9431921  17.9985247  17.9985247
 SUMMED SPIN DENSITY           6.00000000
 TOTAL ATOMIC SPINS  :
   2.9250662   2.9250679   0.0273915   0.0273915   0.0273915   0.0273915
   0.0205655   0.0205655  -0.0004155  -0.0004155
 TTTTTTTTTTTTTTTTTTTTTTTTTTTTTT MOQGAD      TELAPSE       83.79 TCPU       83.83
 TTTTTTTTTTTTTTTTTTTTTTTTTTTTTT SHELLX2     TELAPSE       95.50 TCPU       95.55
 TTTTTTTTTTTTTTTTTTTTTTTTTTTTTT MONMO3      TELAPSE       95.69 TCPU       95.74
 CYC   7 ETOT(AU) -4.558280885227E+03 DETOT -4.44E-04 tst  9.77E-05 PX  2.26E-03
 TTTTTTTTTTTTTTTTTTTTTTTTTTTTTT FDIK        TELAPSE       95.81 TCPU       95.86

    ALPHA      ELECTRONS
 INSULATING STATE - LEVEL SHIFTER    0.30 au
 TOP OF VALENCE BANDS -    BAND     76; K    1; EIG -1.0000000E+00 AU
 BOTTOM OF VIRTUAL BANDS - BAND     77; K    1; EIG  1.0000000E+00 AU

    BETA       ELECTRONS
 INSULATING STATE - LEVEL SHIFTER    0.30 au
 TOP OF VALENCE BANDS -    BAND     70; K    1; EIG -1.0000000E+00 AU
 BOTTOM OF VIRTUAL BANDS - BAND     71; K    1; EIG  1.0000000E+00 AU
 TTTTTTTTTTTTTTTTTTTTTTTTTTTTTT PDIG        TELAPSE       95.85 TCPU       95.90
 CHARGE NORMALIZATION FACTOR   1.00000000
 TOTAL ATOMIC CHARGES:
  25.1844695  25.1844683   9.9365217   9.9365217   9.9365217   9.9365217
   9.9440227   9.9440227  17.9984650  17.9984650
 SUMMED SPIN DENSITY           6.00000000
 TOTAL ATOMIC SPINS  :
   2.9285071   2.9285078   0.0261935   0.0261935   0.0261935   0.0261935
   0.0195344   0.0195344  -0.0004289  -0.0004289
 TTTTTTTTTTTTTTTTTTTTTTTTTTTTTT MOQGAD      TELAPSE       95.89 TCPU       95.94
 TTTTTTTTTTTTTTTTTTTTTTTTTTTTTT SHELLX2     TELAPSE      107.64 TCPU      107.70
 TTTTTTTTTTTTTTTTTTTTTTTTTTTTTT MONMO3      TELAPSE      107.82 TCPU      107.88
 CYC   8 ETOT(AU) -4.558281047098E+03 DETOT -1.62E-04 tst  3.46E-05 PX  1.31E-03
 TTTTTTTTTTTTTTTTTTTTTTTTTTTTTT FDIK        TELAPSE      107.93 TCPU      107.98

    ALPHA      ELECTRONS
 INSULATING STATE - LEVEL SHIFTER    0.30 au
 TOP OF VALENCE BANDS -    BAND     76; K    1; EIG -1.0000000E+00 AU
 BOTTOM OF VIRTUAL BANDS - BAND     77; K    1; EIG  1.0000000E+00 AU

    BETA       ELECTRONS
 INSULATING STATE - LEVEL SHIFTER    0.30 au
 TOP OF VALENCE BANDS -    BAND     70; K    1; EIG -1.0000000E+00 AU
 BOTTOM OF VIRTUAL BANDS - BAND     71; K    1; EIG  1.0000000E+00 AU
 TTTTTTTTTTTTTTTTTTTTTTTTTTTTTT PDIG        TELAPSE      107.96 TCPU      108.02
 CHARGE NORMALIZATION FACTOR   1.00000000
 TOTAL ATOMIC CHARGES:
  25.1829216  25.1829212   9.9370714   9.9370714   9.9370714   9.9370714
   9.9445058   9.9445058  17.9984300  17.9984300
 SUMMED SPIN DENSITY           6.00000000
 TOTAL ATOMIC SPINS  :
   2.9305659   2.9305662   0.0254768   0.0254768   0.0254768   0.0254768
   0.0189232   0.0189232  -0.0004428  -0.0004428
 TTTTTTTTTTTTTTTTTTTTTTTTTTTTTT MOQGAD      TELAPSE      108.00 TCPU      108.05
 TTTTTTTTTTTTTTTTTTTTTTTTTTTTTT SHELLX2     TELAPSE      119.54 TCPU      119.61
 TTTTTTTTTTTTTTTTTTTTTTTTTTTTTT MONMO3      TELAPSE      119.72 TCPU      119.78
 CYC   9 ETOT(AU) -4.558281109687E+03 DETOT -6.26E-05 tst  1.25E-05 PX  9.84E-04
 TTTTTTTTTTTTTTTTTTTTTTTTTTTTTT FDIK        TELAPSE      119.83 TCPU      119.89

    ALPHA      ELECTRONS
 INSULATING STATE - LEVEL SHIFTER    0.30 au
 TOP OF VALENCE BANDS -    BAND     76; K    1; EIG -1.0000000E+00 AU
 BOTTOM OF VIRTUAL BANDS - BAND     77; K    1; EIG  1.0000000E+00 AU

    BETA       ELECTRONS
 INSULATING STATE - LEVEL SHIFTER    0.30 au
 TOP OF VALENCE BANDS -    BAND     70; K    1; EIG -1.0000000E+00 AU
 BOTTOM OF VIRTUAL BANDS - BAND     71; K    1; EIG  1.0000000E+00 AU
 TTTTTTTTTTTTTTTTTTTTTTTTTTTTTT PDIG        TELAPSE      119.86 TCPU      119.93
 CHARGE NORMALIZATION FACTOR   1.00000000
 TOTAL ATOMIC CHARGES:
  25.1820078  25.1820077   9.9373974   9.9373974   9.9373974   9.9373974
   9.9447903   9.9447903  17.9984071  17.9984071
 SUMMED SPIN DENSITY           6.00000000
 TOTAL ATOMIC SPINS  :
   2.9318126   2.9318127   0.0250421   0.0250421   0.0250421   0.0250421
   0.0185566   0.0185566  -0.0004535  -0.0004535
 TTTTTTTTTTTTTTTTTTTTTTTTTTTTTT MOQGAD      TELAPSE      119.90 TCPU      119.96
 TTTTTTTTTTTTTTTTTTTTTTTTTTTTTT SHELLX2     TELAPSE      131.38 TCPU      131.45
 TTTTTTTTTTTTTTTTTTTTTTTTTTTTTT MONMO3      TELAPSE      131.56 TCPU      131.64
 CYC  10 ETOT(AU) -4.558281135349E+03 DETOT -2.57E-05 tst  4.59E-06 PX  7.33E-04
 TTTTTTTTTTTTTTTTTTTTTTTTTTTTTT FDIK        TELAPSE      131.68 TCPU      131.75

    ALPHA      ELECTRONS
 INSULATING STATE - LEVEL SHIFTER    0.30 au
 TOP OF VALENCE BANDS -    BAND     76; K    1; EIG -1.0000000E+00 AU
 BOTTOM OF VIRTUAL BANDS - BAND     77; K    1; EIG  1.0000000E+00 AU

    BETA       ELECTRONS
 INSULATING STATE - LEVEL SHIFTER    0.30 au
 TOP OF VALENCE BANDS -    BAND     70; K    1; EIG -1.0000000E+00 AU
 BOTTOM OF VIRTUAL BANDS - BAND     71; K    1; EIG  1.0000000E+00 AU
 TTTTTTTTTTTTTTTTTTTTTTTTTTTTTT PDIG        TELAPSE      131.71 TCPU      131.78
 CHARGE NORMALIZATION FACTOR   1.00000000
 TOTAL ATOMIC CHARGES:
  25.1814615  25.1814613   9.9375926   9.9375926   9.9375926   9.9375926
   9.9449594   9.9449594  17.9983940  17.9983940
 SUMMED SPIN DENSITY           6.00000000
 TOTAL ATOMIC SPINS  :
   2.9325775   2.9325777   0.0247755   0.0247755   0.0247755   0.0247755
   0.0183337   0.0183337  -0.0004623  -0.0004623
 TTTTTTTTTTTTTTTTTTTTTTTTTTTTTT MOQGAD      TELAPSE      131.75 TCPU      131.82
 TTTTTTTTTTTTTTTTTTTTTTTTTTTTTT SHELLX2     TELAPSE      143.47 TCPU      143.55
 TTTTTTTTTTTTTTTTTTTTTTTTTTTTTT MONMO3      TELAPSE      143.65 TCPU      143.73
 CYC  11 ETOT(AU) -4.558281146531E+03 DETOT -1.12E-05 tst  1.74E-06 PX  5.43E-04
 TTTTTTTTTTTTTTTTTTTTTTTTTTTTTT FDIK        TELAPSE      143.76 TCPU      143.84

    ALPHA      ELECTRONS
 INSULATING STATE - LEVEL SHIFTER    0.30 au
 TOP OF VALENCE BANDS -    BAND     76; K    1; EIG -1.0000000E+00 AU
 BOTTOM OF VIRTUAL BANDS - BAND     77; K    1; EIG  1.0000000E+00 AU

    BETA       ELECTRONS
 INSULATING STATE - LEVEL SHIFTER    0.30 au
 TOP OF VALENCE BANDS -    BAND     70; K    1; EIG -1.0000000E+00 AU
 BOTTOM OF VIRTUAL BANDS - BAND     71; K    1; EIG  1.0000000E+00 AU
 TTTTTTTTTTTTTTTTTTTTTTTTTTTTTT PDIG        TELAPSE      143.79 TCPU      143.87
 CHARGE NORMALIZATION FACTOR   1.00000000
 TOTAL ATOMIC CHARGES:
  25.1811306  25.1811306   9.9377106   9.9377106   9.9377106   9.9377106
   9.9450612   9.9450612  17.9983869  17.9983869
 SUMMED SPIN DENSITY           6.00000000
 TOTAL ATOMIC SPINS  :
   2.9330535   2.9330536   0.0246097   0.0246097   0.0246097   0.0246097
   0.0181968   0.0181968  -0.0004698  -0.0004698
 TTTTTTTTTTTTTTTTTTTTTTTTTTTTTT MOQGAD      TELAPSE      143.83 TCPU      143.91
 TTTTTTTTTTTTTTTTTTTTTTTTTTTTTT SHELLX2     TELAPSE      155.42 TCPU      155.51
 TTTTTTTTTTTTTTTTTTTTTTTTTTTTTT MONMO3      TELAPSE      155.60 TCPU      155.68
 CYC  12 ETOT(AU) -4.558281151684E+03 DETOT -5.15E-06 tst  6.77E-07 PX  4.02E-04
 TTTTTTTTTTTTTTTTTTTTTTTTTTTTTT FDIK        TELAPSE      155.71 TCPU      155.79

    ALPHA      ELECTRONS
 INSULATING STATE - LEVEL SHIFTER    0.30 au
 TOP OF VALENCE BANDS -    BAND     76; K    1; EIG -1.0000000E+00 AU
 BOTTOM OF VIRTUAL BANDS - BAND     77; K    1; EIG  1.0000000E+00 AU

    BETA       ELECTRONS
 INSULATING STATE - LEVEL SHIFTER    0.30 au
 TOP OF VALENCE BANDS -    BAND     70; K    1; EIG -1.0000000E+00 AU
 BOTTOM OF VIRTUAL BANDS - BAND     71; K    1; EIG  1.0000000E+00 AU
 TTTTTTTTTTTTTTTTTTTTTTTTTTTTTT PDIG        TELAPSE      155.74 TCPU      155.83
 CHARGE NORMALIZATION FACTOR   1.00000000
 TOTAL ATOMIC CHARGES:
  25.1809271  25.1809271   9.9377835   9.9377835   9.9377835   9.9377835
   9.9451232   9.9451232  17.9983827  17.9983827
 SUMMED SPIN DENSITY           6.00000000
 TOTAL ATOMIC SPINS  :
   2.9333543   2.9333543   0.0245047   0.0245047   0.0245047   0.0245047
   0.0181118   0.0181118  -0.0004755  -0.0004755
 TTTTTTTTTTTTTTTTTTTTTTTTTTTTTT MOQGAD      TELAPSE      155.78 TCPU      155.86
 TTTTTTTTTTTTTTTTTTTTTTTTTTTTTT SHELLX2     TELAPSE      167.41 TCPU      167.51
 TTTTTTTTTTTTTTTTTTTTTTTTTTTTTT MONMO3      TELAPSE      167.59 TCPU      167.68
 CYC  13 ETOT(AU) -4.558281154168E+03 DETOT -2.48E-06 tst  2.73E-07 PX  2.97E-04
 TTTTTTTTTTTTTTTTTTTTTTTTTTTTTT FDIK        TELAPSE      167.70 TCPU      167.79

    ALPHA      ELECTRONS
 INSULATING STATE - LEVEL SHIFTER    0.30 au
 TOP OF VALENCE BANDS -    BAND     76; K    1; EIG -1.0000000E+00 AU
 BOTTOM OF VIRTUAL BANDS - BAND     77; K    1; EIG  1.0000000E+00 AU

    BETA       ELECTRONS
 INSULATING STATE - LEVEL SHIFTER    0.30 au
 TOP OF VALENCE BANDS -    BAND     70; K    1; EIG -1.0000000E+00 AU
 BOTTOM OF VIRTUAL BANDS - BAND     71; K    1; EIG  1.0000000E+00 AU
 TTTTTTTTTTTTTTTTTTTTTTTTTTTTTT PDIG        TELAPSE      167.73 TCPU      167.82
 CHARGE NORMALIZATION FACTOR   1.00000000
 TOTAL ATOMIC CHARGES:
  25.1807997  25.1807997   9.9378292   9.9378292   9.9378292   9.9378292
   9.9451617   9.9451617  17.9983802  17.9983802
 SUMMED SPIN DENSITY           6.00000000
 TOTAL ATOMIC SPINS  :
   2.9335480   2.9335481   0.0244369   0.0244369   0.0244369   0.0244369
   0.0180576   0.0180576  -0.0004795  -0.0004795
 TTTTTTTTTTTTTTTTTTTTTTTTTTTTTT MOQGAD      TELAPSE      167.77 TCPU      167.86
 TTTTTTTTTTTTTTTTTTTTTTTTTTTTTT SHELLX2     TELAPSE      179.41 TCPU      179.51
 TTTTTTTTTTTTTTTTTTTTTTTTTTTTTT MONMO3      TELAPSE      179.59 TCPU      179.69
 CYC  14 ETOT(AU) -4.558281155399E+03 DETOT -1.23E-06 tst  1.14E-07 PX  2.19E-04
 TTTTTTTTTTTTTTTTTTTTTTTTTTTTTT FDIK        TELAPSE      179.70 TCPU      179.80

    ALPHA      ELECTRONS
 INSULATING STATE - LEVEL SHIFTER    0.30 au
 TOP OF VALENCE BANDS -    BAND     76; K    1; EIG -1.0000000E+00 AU
 BOTTOM OF VIRTUAL BANDS - BAND     77; K    1; EIG  1.0000000E+00 AU

    BETA       ELECTRONS
 INSULATING STATE - LEVEL SHIFTER    0.30 au
 TOP OF VALENCE BANDS -    BAND     70; K    1; EIG -1.0000000E+00 AU
 BOTTOM OF VIRTUAL BANDS - BAND     71; K    1; EIG  1.0000000E+00 AU
 TTTTTTTTTTTTTTTTTTTTTTTTTTTTTT PDIG        TELAPSE      179.73 TCPU      179.83
 CHARGE NORMALIZATION FACTOR   1.00000000
 TOTAL ATOMIC CHARGES:
  25.1807182  25.1807182   9.9378585   9.9378585   9.9378585   9.9378585
   9.9451860   9.9451860  17.9983788  17.9983788
 SUMMED SPIN DENSITY           6.00000000
 TOTAL ATOMIC SPINS  :
   2.9336750   2.9336750   0.0243924   0.0243924   0.0243924   0.0243924
   0.0180224   0.0180224  -0.0004823  -0.0004823
 TTTTTTTTTTTTTTTTTTTTTTTTTTTTTT MOQGAD      TELAPSE      179.77 TCPU      179.87
 TTTTTTTTTTTTTTTTTTTTTTTTTTTTTT SHELLX2     TELAPSE      191.42 TCPU      191.53
 TTTTTTTTTTTTTTTTTTTTTTTTTTTTTT MONMO3      TELAPSE      191.60 TCPU      191.70
 CYC  15 ETOT(AU) -4.558281156022E+03 DETOT -6.22E-07 tst  4.91E-08 PX  1.62E-04
 TTTTTTTTTTTTTTTTTTTTTTTTTTTTTT FDIK        TELAPSE      191.71 TCPU      191.81

    ALPHA      ELECTRONS
 INSULATING STATE - LEVEL SHIFTER    0.30 au
 TOP OF VALENCE BANDS -    BAND     76; K    1; EIG -1.0000000E+00 AU
 BOTTOM OF VIRTUAL BANDS - BAND     77; K    1; EIG  1.0000000E+00 AU

    BETA       ELECTRONS
 INSULATING STATE - LEVEL SHIFTER    0.30 au
 TOP OF VALENCE BANDS -    BAND     70; K    1; EIG -1.0000000E+00 AU
 BOTTOM OF VIRTUAL BANDS - BAND     71; K    1; EIG  1.0000000E+00 AU
 TTTTTTTTTTTTTTTTTTTTTTTTTTTTTT PDIG        TELAPSE      191.74 TCPU      191.85
 CHARGE NORMALIZATION FACTOR   1.00000000
 TOTAL ATOMIC CHARGES:
  25.1806652  25.1806652   9.9378776   9.9378776   9.9378776   9.9378776
   9.9452018   9.9452018  17.9983779  17.9983779
 SUMMED SPIN DENSITY           6.00000000
 TOTAL ATOMIC SPINS  :
   2.9337598   2.9337598   0.0243626   0.0243626   0.0243626   0.0243626
   0.0179991   0.0179991  -0.0004842  -0.0004842
 TTTTTTTTTTTTTTTTTTTTTTTTTTTTTT MOQGAD      TELAPSE      191.78 TCPU      191.88
 TTTTTTTTTTTTTTTTTTTTTTTTTTTTTT SHELLX2     TELAPSE      203.46 TCPU      203.57
 TTTTTTTTTTTTTTTTTTTTTTTTTTTTTT MONMO3      TELAPSE      203.64 TCPU      203.75
 CYC  16 ETOT(AU) -4.558281156338E+03 DETOT -3.17E-07 tst  2.19E-08 PX  1.20E-04
 TTTTTTTTTTTTTTTTTTTTTTTTTTTTTT FDIK        TELAPSE      203.76 TCPU      203.87

    ALPHA      ELECTRONS
 INSULATING STATE - LEVEL SHIFTER    0.30 au
 TOP OF VALENCE BANDS -    BAND     76; K    1; EIG -1.0000000E+00 AU
 BOTTOM OF VIRTUAL BANDS - BAND     77; K    1; EIG  1.0000000E+00 AU

    BETA       ELECTRONS
 INSULATING STATE - LEVEL SHIFTER    0.30 au
 TOP OF VALENCE BANDS -    BAND     70; K    1; EIG -1.0000000E+00 AU
 BOTTOM OF VIRTUAL BANDS - BAND     71; K    1; EIG  1.0000000E+00 AU
 TTTTTTTTTTTTTTTTTTTTTTTTTTTTTT PDIG        TELAPSE      203.80 TCPU      203.91
 CHARGE NORMALIZATION FACTOR   1.00000000
 TOTAL ATOMIC CHARGES:
  25.1806299  25.1806299   9.9378904   9.9378904   9.9378904   9.9378904
   9.9452121   9.9452121  17.9983773  17.9983773
 SUMMED SPIN DENSITY           6.00000000
 TOTAL ATOMIC SPINS  :
   2.9338172   2.9338172   0.0243423   0.0243423   0.0243423   0.0243423
   0.0179835   0.0179835  -0.0004854  -0.0004854
 TTTTTTTTTTTTTTTTTTTTTTTTTTTTTT MOQGAD      TELAPSE      203.84 TCPU      203.95
 TTTTTTTTTTTTTTTTTTTTTTTTTTTTTT SHELLX2     TELAPSE      215.57 TCPU      215.68
 TTTTTTTTTTTTTTTTTTTTTTTTTTTTTT MONMO3      TELAPSE      215.75 TCPU      215.86
 CYC  17 ETOT(AU) -4.558281156497E+03 DETOT -1.58E-07 tst  1.01E-08 PX  8.85E-05
 TTTTTTTTTTTTTTTTTTTTTTTTTTTTTT FDIK        TELAPSE      215.86 TCPU      215.98

    ALPHA      ELECTRONS
 INSULATING STATE - LEVEL SHIFTER    0.30 au
 TOP OF VALENCE BANDS -    BAND     76; K    1; EIG -1.0000000E+00 AU
 BOTTOM OF VIRTUAL BANDS - BAND     77; K    1; EIG  1.0000000E+00 AU

    BETA       ELECTRONS
 INSULATING STATE - LEVEL SHIFTER    0.30 au
 TOP OF VALENCE BANDS -    BAND     70; K    1; EIG -1.0000000E+00 AU
 BOTTOM OF VIRTUAL BANDS - BAND     71; K    1; EIG  1.0000000E+00 AU
 TTTTTTTTTTTTTTTTTTTTTTTTTTTTTT PDIG        TELAPSE      215.90 TCPU      216.01
 CHARGE NORMALIZATION FACTOR   1.00000000
 TOTAL ATOMIC CHARGES:
  25.1806060  25.1806060   9.9378990   9.9378990   9.9378990   9.9378990
   9.9452191   9.9452191  17.9983769  17.9983769
 SUMMED SPIN DENSITY           6.00000000
 TOTAL ATOMIC SPINS  :
   2.9338569   2.9338569   0.0243283   0.0243283   0.0243283   0.0243283
   0.0179728   0.0179728  -0.0004862  -0.0004862
 TTTTTTTTTTTTTTTTTTTTTTTTTTTTTT MOQGAD      TELAPSE      215.94 TCPU      216.05
 TTTTTTTTTTTTTTTTTTTTTTTTTTTTTT SHELLX2     TELAPSE      227.65 TCPU      227.77
 TTTTTTTTTTTTTTTTTTTTTTTTTTTTTT MONMO3      TELAPSE      227.82 TCPU      227.94
 CYC  18 ETOT(AU) -4.558281156574E+03 DETOT -7.78E-08 tst  5.08E-09 PX  6.57E-05
 TTTTTTTTTTTTTTTTTTTTTTTTTTTTTT FDIK        TELAPSE      227.93 TCPU      228.05

    ALPHA      ELECTRONS
 INSULATING STATE - LEVEL SHIFTER    0.30 au
 TOP OF VALENCE BANDS -    BAND     76; K    1; EIG -1.0000000E+00 AU
 BOTTOM OF VIRTUAL BANDS - BAND     77; K    1; EIG  1.0000000E+00 AU

    BETA       ELECTRONS
 INSULATING STATE - LEVEL SHIFTER    0.30 au
 TOP OF VALENCE BANDS -    BAND     70; K    1; EIG -1.0000000E+00 AU
 BOTTOM OF VIRTUAL BANDS - BAND     71; K    1; EIG  1.0000000E+00 AU
 TTTTTTTTTTTTTTTTTTTTTTTTTTTTTT PDIG        TELAPSE      227.96 TCPU      228.09
 CHARGE NORMALIZATION FACTOR   1.00000000
 TOTAL ATOMIC CHARGES:
  25.1805894  25.1805894   9.9379050   9.9379050   9.9379050   9.9379050
   9.9452239   9.9452239  17.9983766  17.9983766
 SUMMED SPIN DENSITY           6.00000000
 TOTAL ATOMIC SPINS  :
   2.9338846   2.9338847   0.0243184   0.0243184   0.0243184   0.0243184
   0.0179654   0.0179654  -0.0004867  -0.0004867
 TTTTTTTTTTTTTTTTTTTTTTTTTTTTTT MOQGAD      TELAPSE      228.00 TCPU      228.12
 TTTTTTTTTTTTTTTTTTTTTTTTTTTTTT SHELLX2     TELAPSE      239.71 TCPU      239.84
 +++ ENERGIES IN A.U. +++
 ::: EXT EL-POLE                                  -2.6825770739655E+03
 ::: EXT EL-SPHEROPOLE                             2.5691151861928E+01
 ::: BIELET ZONE E-E                               3.7503046274339E+03
 ::: TOTAL E-E                                     1.0934187053303E+03
 ::: TOTAL E-N + N-E                              -9.4769503468232E+03
 ::: TOTAL N-N                                    -7.3124799123709E+02
 ::: KINETIC ENERGY                                4.5564984761206E+03
 ::: TOTAL   ENERGY                               -4.5582811566094E+03
 ::: VIRIAL COEFFICIENT                            9.9980441869573E-01
 TTTTTTTTTTTTTTTTTTTTTTTTTTTTTT MONMO3      TELAPSE      239.89 TCPU      240.01
 CYC  19 ETOT(AU) -4.558281156609E+03 DETOT -3.50E-08 tst  2.81E-09 PX  6.57E-05

 == SCF ENDED - CONVERGENCE ON ENERGY      E(AU) -4.5582811566094E+03 CYCLES  19

 TOTAL ENERGY(HF)(AU)(  19) -4.5582811566094E+03 DE-3.5E-08 tst 2.8E-09 PX 6.6E-05

 NEIGHBORS OF THE NON-EQUIVALENT ATOMS

 N = NUMBER OF NEIGHBORS AT DISTANCE R
    ATOM  N     R/ANG      R/AU   NEIGHBORS (ATOM LABELS AND CELL INDICES)
   1 CO   6     2.0355     3.8465    3 F    0 0 0    4 F    0 0 0    5 F    0 0 0
                                     6 F    0 0 0    7 F    0 0 0    8 F    0 0 0
   1 CO   8     3.5256     6.6624    9 K    0 0 0    9 K   -1 0 0    9 K    0 1 0
                                     9 K    0 0 1   10 K    0 0 0   10 K    1 0 0
                                    10 K    0-1 0   10 K    0 0-1
   1 CO   4     4.0710     7.6931    2 CO  -1-1 0    2 CO  -1 0-1    2 CO   0-1 0
                                     2 CO   0 0-1
   1 CO   2     4.0710     7.6931    2 CO   0 0 0    2 CO  -1-1-1
   1 CO  16     4.5515     8.6011    3 F   -1 0 0    3 F    0 1-1    4 F    1 0 0
                                     4 F    0-1 1    5 F   -1 0 0    5 F    0-1 1
                                     6 F    1 0 0    6 F    0 1-1    7 F    1 1 0
                                     7 F    1 0 1    7 F    0 1 0    7 F    0 0 1
                                     8 F   -1-1 0    8 F   -1 0-1    8 F    0-1 0
                                     8 F    0 0-1
   1 CO   8     4.5515     8.6011    3 F   -1 0-1    3 F    0 1 0    4 F    1 0 1
                                     4 F    0-1 0    5 F   -1-1 0    5 F    0 0 1
                                     6 F    1 1 0    6 F    0 0-1

   2 CO   6     2.0355     3.8465    3 F    0 1 0    4 F    1 0 1    5 F    0 0 1
                                     6 F    1 1 0    7 F    1 1 1    8 F    0 0 0
   2 CO   8     3.5256     6.6624    9 K    0 1 0    9 K    0 0 1    9 K    1 1 1
                                     9 K    0 1 1   10 K    1 1 0   10 K    1 0 1
                                    10 K    0 0 0   10 K    1 0 0
   2 CO   4     4.0710     7.6931    1 CO   1 1 0    1 CO   1 0 1    1 CO   0 1 0
                                     1 CO   0 0 1
   2 CO   2     4.0710     7.6931    1 CO   0 0 0    1 CO   1 1 1
   2 CO  16     4.5515     8.6011    3 F    1 1 0    3 F    0 0 1    4 F    0 0 1
                                     4 F    1 1 0    5 F    1 0 1    5 F    0 1 0
                                     6 F    0 1 0    6 F    1 0 1    7 F    1 1 0
                                     7 F    1 0 1    7 F    0 1 0    7 F    0 0 1
                                     8 F    0 0 1    8 F    1 0 1    8 F    0 1 0
                                     8 F    1 1 0
   2 CO   8     4.5515     8.6011    3 F    0 0 0    3 F    1 1 1    4 F    0 0 0
                                     4 F    1 1 1    5 F    1 1 1    5 F    0 0 0
                                     6 F    1 1 1    6 F    0 0 0

   3 F    2     2.0355     3.8465    1 CO   0 0 0    2 CO   0-1 0
   3 F    8     2.8786     5.4398    5 F    0 0 0    5 F    0-1 1    6 F    0 0 0
                                     6 F    1 0 0    7 F    0 0 0    7 F    1 0 1
                                     8 F    0 0 0    8 F    0-1 0
   3 F    4     2.8786     5.4398    9 K    0 0 0    9 K    0 0 1   10 K    1 0 0
                                    10 K    0-1 0
   3 F    4     4.0710     7.6931    4 F    0 0 0    4 F    1 0 0    4 F    0-1 1
                                     4 F    1-1 1
   3 F    2     4.0710     7.6931    4 F    1 0 1    4 F    0-1 0
   3 F    4     4.5515     8.6011    1 CO   1 0 0    1 CO   0-1 1    2 CO  -1-1 0
                                     2 CO   0 0-1

   7 F    2     2.0355     3.8465    1 CO   0 0 0    2 CO  -1-1-1
   7 F    4     2.8786     5.4398    9 K    0 0 0    9 K   -1 0 0   10 K    0 0-1
                                    10 K    0-1 0
   7 F    8     2.8786     5.4398    3 F    0 0 0    3 F   -1 0-1    4 F    0 0 0
                                     4 F    0-1 0    5 F    0 0 0    5 F   -1-1 0
                                     6 F    0 0 0    6 F    0 0-1
   7 F    4     4.0710     7.6931    8 F   -1-1 0    8 F   -1 0-1    8 F    0-1 0
                                     8 F    0 0-1
   7 F    2     4.0710     7.6931    8 F    0 0 0    8 F   -1-1-1
   7 F    8     4.5515     8.6011    1 CO  -1-1 0    1 CO  -1 0-1    1 CO   0-1 0
                                     1 CO   0 0-1    2 CO  -1-1 0    2 CO  -1 0-1
                                     2 CO   0-1 0    2 CO   0 0-1

   9 K   12     2.8786     5.4398    7 F    0 0 0    7 F    1 0 0    8 F    0 0-1
                                     8 F    0-1 0    3 F    0 0 0    3 F    0 0-1
                                     4 F    1 0 0    4 F    0-1 0    5 F    0 0 0
                                     5 F    0-1 0    6 F    1 0 0    6 F    0 0-1
   9 K    8     3.5256     6.6624    1 CO   0 0 0    1 CO   1 0 0    1 CO   0-1 0
                                     1 CO   0 0-1    2 CO   0-1 0    2 CO   0 0-1
                                     2 CO  -1-1-1    2 CO   0-1-1
   9 K    4     4.0710     7.6931   10 K    0-1 0   10 K    0 0-1   10 K    1 0-1
                                    10 K    1-1 0
   9 K    2     4.0710     7.6931   10 K    1 0 0   10 K    0-1-1
   9 K   24     4.9859     9.4221    3 F   -1 0-1    3 F    1 0 0    3 F    0-1 0
                                     3 F    0 1-1    4 F    1-1 0    4 F    0 0 0
                                     4 F    0 0-1    4 F    1-1 1    5 F   -1-1 0
                                     5 F    1 0 0    5 F    0 0-1    5 F    0-1 1
                                     6 F    1 0-1    6 F    0 0 0    6 F    0-1 0
                                     6 F    1 1-1    7 F    1 1 0    7 F    1 0 1
                                     7 F    0-1 0    7 F    0 0-1    8 F   -1-1-1
                                     8 F    0-1-1    8 F    1 0 0    8 F    0 0 0
   9 K    4     5.7573    10.8797    9 K   -1 0 0    9 K    1 0 0    9 K    0-1 1
                                     9 K    0 1-1

 TTTTTTTTTTTTTTTTTTTTTTTTTTTTTT AFTER FIRST TELAPSE      239.89 TCPU      240.02
 MMMMMMMMMMMMMMMMMMMMMMMMMMMMMMMMMMMMMMMMMMMMMMMMMMMMMMMMMMMMMMMMMMMMMMMMMMMMMMM
     ALPHA+BETA ELECTRONS
 MULLIKEN POPULATION ANALYSIS - NO. OF ELECTRONS  146.000000

  ATOM    Z CHARGE  A.O. POPULATION

   1 CO  27 25.181  2.000  1.887  2.063  2.063  2.064  0.348  0.584  0.584
                    0.583  1.307  1.027  1.027  1.021  0.470  0.334  0.334
                    0.340  0.941  1.768  1.768  0.949  0.915  0.117  0.236
                    0.236  0.116  0.100
   2 CO  27 25.181  2.000  1.887  2.063  2.063  2.064  0.348  0.584  0.584
                    0.583  1.307  1.027  1.027  1.021  0.470  0.334  0.334
                    0.340  0.941  1.768  1.768  0.949  0.915  0.117  0.236
                    0.236  0.116  0.100
   3 F    9  9.938  1.999  0.813  0.989  1.045  1.056  0.994  0.690  0.677
                    0.679  0.190  0.283  0.265  0.258
   4 F    9  9.938  1.999  0.813  0.989  1.045  1.056  0.994  0.690  0.677
                    0.679  0.190  0.283  0.265  0.258
   5 F    9  9.938  1.999  0.813  1.045  0.989  1.056  0.994  0.677  0.690
                    0.679  0.190  0.265  0.283  0.258
   6 F    9  9.938  1.999  0.813  1.045  0.989  1.056  0.994  0.677  0.690
                    0.679  0.190  0.265  0.283  0.258
   7 F    9  9.945  1.999  0.813  1.050  1.050  0.991  0.990  0.675  0.675
                    0.683  0.194  0.267  0.267  0.291
   8 F    9  9.945  1.999  0.813  1.050  1.050  0.991  0.990  0.675  0.675
                    0.683  0.194  0.267  0.267  0.291
   9 K   19 17.998  2.000  1.985  2.031  2.031  2.031  0.798  1.055  1.055
                    1.054  0.938  0.564  0.564  0.562  0.285  0.349  0.349
                    0.350
  10 K   19 17.998  2.000  1.985  2.031  2.031  2.031  0.798  1.055  1.055
                    1.054  0.938  0.564  0.564  0.562  0.285  0.349  0.349
                    0.350

  ATOM    Z CHARGE  SHELL POPULATION

   1 CO  27 25.181  2.000  8.077  2.099  4.381  1.478  6.341  0.805
   2 CO  27 25.181  2.000  8.077  2.099  4.381  1.478  6.341  0.805
   3 F    9  9.938  1.999  3.903  3.040  0.996
   4 F    9  9.938  1.999  3.903  3.040  0.996
   5 F    9  9.938  1.999  3.903  3.040  0.996
   6 F    9  9.938  1.999  3.903  3.040  0.996
   7 F    9  9.945  1.999  3.904  3.023  1.019
   8 F    9  9.945  1.999  3.904  3.023  1.019
   9 K   19 17.998  2.000  8.077  3.961  2.628  1.332
  10 K   19 17.998  2.000  8.077  3.961  2.628  1.332

 OVERLAP POPULATION CONDENSED TO ATOMS FOR FIRST   6 NEIGHBORS

 ATOM A   1 CO   ATOM B     CELL      R(AB)/AU R(AB)/ANG    OVPOP(AB)
                  3 F    (  0  0  0)     3.847     2.036     0.001
                  9 K    (  0  0  0)     6.662     3.526     0.000
                  2 CO   ( -1 -1  0)     7.693     4.071     0.000
                  2 CO   (  0  0  0)     7.693     4.071     0.000
                  3 F    ( -1  0  0)     8.601     4.552     0.000
                  3 F    ( -1  0 -1)     8.601     4.552     0.000

 ATOM A   2 CO   ATOM B     CELL      R(AB)/AU R(AB)/ANG    OVPOP(AB)
                  3 F    (  0  1  0)     3.847     2.035     0.001
                  9 K    (  0  1  0)     6.662     3.526     0.000
                  1 CO   (  1  1  0)     7.693     4.071     0.000
                  1 CO   (  0  0  0)     7.693     4.071     0.000
                  3 F    (  1  1  0)     8.601     4.552     0.000
                  3 F    (  0  0  0)     8.601     4.552     0.000

 ATOM A   3 F    ATOM B     CELL      R(AB)/AU R(AB)/ANG    OVPOP(AB)
                  1 CO   (  0  0  0)     3.847     2.036     0.001
                  5 F    (  0  0  0)     5.440     2.879     0.001
                  9 K    (  0  0  0)     5.440     2.879    -0.003
                  4 F    (  0  0  0)     7.693     4.071    -0.001
                  4 F    (  1  0  1)     7.693     4.071     0.000
                  1 CO   (  1  0  0)     8.601     4.552     0.000

 ATOM A   7 F    ATOM B     CELL      R(AB)/AU R(AB)/ANG    OVPOP(AB)
                  1 CO   (  0  0  0)     3.847     2.036    -0.007
                  9 K    (  0  0  0)     5.440     2.879    -0.004
                  3 F    (  0  0  0)     5.440     2.879     0.001
                  8 F    ( -1 -1  0)     7.693     4.071     0.000
                  8 F    (  0  0  0)     7.693     4.071    -0.001
                  1 CO   ( -1 -1  0)     8.601     4.552     0.000

 ATOM A   9 K    ATOM B     CELL      R(AB)/AU R(AB)/ANG    OVPOP(AB)
                  7 F    (  0  0  0)     5.440     2.879    -0.004
                  1 CO   (  0  0  0)     6.662     3.526     0.000
                 10 K    (  0 -1  0)     7.693     4.071     0.000
                 10 K    (  1  0  0)     7.693     4.071     0.000
                  3 F    ( -1  0 -1)     9.422     4.986     0.000
                  9 K    ( -1  0  0)    10.880     5.757     0.000
 TTTTTTTTTTTTTTTTTTTTTTTTTTTTTT AFTER FIRST TELAPSE      239.89 TCPU      240.02
 MMMMMMMMMMMMMMMMMMMMMMMMMMMMMMMMMMMMMMMMMMMMMMMMMMMMMMMMMMMMMMMMMMMMMMMMMMMMMMM
     ALPHA-BETA ELECTRONS
 MULLIKEN POPULATION ANALYSIS - NO. OF ELECTRONS    6.000000

  ATOM    Z CHARGE  A.O. POPULATION

   1 CO  27  2.934  0.000  0.002 -0.001 -0.001 -0.001 -0.001  0.006  0.006
                    0.005  0.008  0.010  0.010  0.008 -0.007 -0.013 -0.013
                   -0.011  0.917  0.031  0.031  0.921  0.910  0.052 -0.030
                   -0.030  0.045  0.081
   2 CO  27  2.934  0.000  0.002 -0.001 -0.001 -0.001 -0.001  0.006  0.006
                    0.005  0.008  0.010  0.010  0.008 -0.007 -0.013 -0.013
                   -0.011  0.917  0.031  0.031  0.921  0.910  0.052 -0.030
                   -0.030  0.045  0.081
   3 F    9  0.024  0.000  0.005  0.021  0.009  0.001  0.000  0.000  0.001
                    0.000 -0.003 -0.003 -0.005 -0.002
   4 F    9  0.024  0.000  0.005  0.021  0.009  0.001  0.000  0.000  0.001
                    0.000 -0.003 -0.003 -0.005 -0.002
   5 F    9  0.024  0.000  0.005  0.009  0.021  0.001  0.000  0.001  0.000
                    0.000 -0.003 -0.005 -0.003 -0.002
   6 F    9  0.024  0.000  0.005  0.009  0.021  0.001  0.000  0.001  0.000
                    0.000 -0.003 -0.005 -0.003 -0.002
   7 F    9  0.018  0.000  0.005  0.001  0.001  0.022  0.000  0.000  0.000
                    0.002 -0.003 -0.001 -0.001 -0.006
   8 F    9  0.018  0.000  0.005  0.001  0.001  0.022  0.000  0.000  0.000
                    0.002 -0.003 -0.001 -0.001 -0.006
   9 K   19  0.000  0.000  0.000  0.000  0.000  0.000  0.000  0.000  0.000
                    0.000  0.000  0.000  0.000  0.000  0.000  0.000  0.000
                    0.000
  10 K   19  0.000  0.000  0.000  0.000  0.000  0.000  0.000  0.000  0.000
                    0.000  0.000  0.000  0.000  0.000  0.000  0.000  0.000
                    0.000

  ATOM    Z CHARGE  SHELL POPULATION

   1 CO  27  2.934  0.000 -0.002  0.016  0.037 -0.045  2.810  0.119
   2 CO  27  2.934  0.000 -0.002  0.016  0.037 -0.045  2.810  0.119
   3 F    9  0.024  0.000  0.036  0.001 -0.013
   4 F    9  0.024  0.000  0.036  0.001 -0.013
   5 F    9  0.024  0.000  0.036  0.001 -0.013
   6 F    9  0.024  0.000  0.036  0.001 -0.013
   7 F    9  0.018  0.000  0.028  0.002 -0.012
   8 F    9  0.018  0.000  0.028  0.002 -0.012
   9 K   19  0.000  0.000  0.000  0.000  0.000  0.000
  10 K   19  0.000  0.000  0.000  0.000  0.000  0.000

 OVERLAP POPULATION CONDENSED TO ATOMS FOR FIRST   6 NEIGHBORS

 ATOM A   1 CO   ATOM B     CELL      R(AB)/AU R(AB)/ANG    OVPOP(AB)
                  3 F    (  0  0  0)     3.847     2.036    -0.018
                  9 K    (  0  0  0)     6.662     3.526     0.000
                  2 CO   ( -1 -1  0)     7.693     4.071     0.000
                  2 CO   (  0  0  0)     7.693     4.071     0.000
                  3 F    ( -1  0  0)     8.601     4.552     0.000
                  3 F    ( -1  0 -1)     8.601     4.552     0.000

 ATOM A   2 CO   ATOM B     CELL      R(AB)/AU R(AB)/ANG    OVPOP(AB)
                  3 F    (  0  1  0)     3.847     2.035    -0.018
                  9 K    (  0  1  0)     6.662     3.526     0.000
                  1 CO   (  1  1  0)     7.693     4.071     0.000
                  1 CO   (  0  0  0)     7.693     4.071     0.000
                  3 F    (  1  1  0)     8.601     4.552     0.000
                  3 F    (  0  0  0)     8.601     4.552     0.000

 ATOM A   3 F    ATOM B     CELL      R(AB)/AU R(AB)/ANG    OVPOP(AB)
                  1 CO   (  0  0  0)     3.847     2.036    -0.018
                  5 F    (  0  0  0)     5.440     2.879    -0.001
                  9 K    (  0  0  0)     5.440     2.879     0.000
                  4 F    (  0  0  0)     7.693     4.071     0.000
                  4 F    (  1  0  1)     7.693     4.071     0.000
                  1 CO   (  1  0  0)     8.601     4.552     0.000

 ATOM A   7 F    ATOM B     CELL      R(AB)/AU R(AB)/ANG    OVPOP(AB)
                  1 CO   (  0  0  0)     3.847     2.036    -0.016
                  9 K    (  0  0  0)     5.440     2.879     0.000
                  3 F    (  0  0  0)     5.440     2.879    -0.001
                  8 F    ( -1 -1  0)     7.693     4.071     0.000
                  8 F    (  0  0  0)     7.693     4.071     0.000
                  1 CO   ( -1 -1  0)     8.601     4.552     0.000

 ATOM A   9 K    ATOM B     CELL      R(AB)/AU R(AB)/ANG    OVPOP(AB)
                  7 F    (  0  0  0)     5.440     2.879     0.000
                  1 CO   (  0  0  0)     6.662     3.526     0.000
                 10 K    (  0 -1  0)     7.693     4.071     0.000
                 10 K    (  1  0  0)     7.693     4.071     0.000
                  3 F    ( -1  0 -1)     9.422     4.986     0.000
                  9 K    ( -1  0  0)    10.880     5.757     0.000
 EIGENVECTORS IN FORTRAN UNIT 10
 TTTTTTTTTTTTTTTTTTTTTTTTTTTTTT END         TELAPSE      239.92 TCPU      240.05
 EEEEEEEEEE TERMINATION  DATE 09 12 2014 TIME 10:57:00.7
