
         
 *******************************************************************************
 *                                                                             *
 *                               CRYSTAL14                                     *
 *                      public : 1.0.2 - Feb 23rd, 2013                        *
 *                       HTTP://WWW.CRYSTAL.UNITO.IT                           *
 *                                                                             *
 *                              MAIN AUTHORS                                   *
 *                                                                             *
 *  R. DOVESI(1,11), V.R. SAUNDERS(2), C. ROETTI(1,11), R. ORLANDO(1,11),      *
 *  C.M. ZICOVICH-WILSON(1,3), F. PASCALE(4), B. CIVALLERI(1,11),              *
 *  K. DOLL(5), N.M. HARRISON(2,6), I. J. BUSH(7), Ph. D'ARCO(8),              *
 *  M. LLUNELL(9), M. CAUSA'(10), Y. NOEL(8)                                   *
 *                                                                             *
 *        CONTRIBUTIONS TO THE CURRENT RELEASE HAVE BEEN GIVEN BY              *
 *                                                                             *
 *  L. MASCHIO(1,11), S. CASASSA(1,11), A. ERBA(1,11), M. FERRABONE(1,11),     *
 *  M. DE LA PIERRE(1,11), M. FERRERO(1,11), V. LACIVITA(1,11),                *
 *  J. BAIMA(1,11), E. ALBANESE(1,11), M.F. PEINTINGER(12), R. BAST(13),       *
 *  M. RERAT(14), B. KIRTMAN(15), R. DEMICHELIS(1,16)                          *
 *                                                                             *
 * (1) THEORETICAL CHEMISTRY GROUP - UNIVERSITA' DI TORINO - TORINO (ITALY)    *
 *     http://www.crystal.unito.it                                             *
 * (2) COMPUTATIONAL SCIENCE & ENGINEERING DEPARTMENT - STFC DARESBURY (UK)    *
 *     http://www.stfc.ac.uk/CSE/randd/cmg/CRYSTAL/25806.aspx                  *
 * (3) UNIVERSIDAD AUTONOMA DEL ESTADO DE MORELOS - CUERNAVACA (MEXICO)        *
 * (4) UNIVERSITE' DE LORRAINE - NANCY (FRANCE)                                *
 * (5) UNIVERSITAET ULM - ULM (GERMANY); (6) IMPERIAL COLLEGE - LONDON (UK)    *
 * (7) NAG - OXFORD (UK); (8) UPMC - SORBONNE UNIVERSITES - PARIS (FRANCE)     *
 * (9) UNIVERSIDAD DE BARCELONA - BARCELONA (SPAIN)                            *
 *(10) UNIVERSITA' DI NAPOLI "FEDERICO II" - NAPOLI (ITALY)                    *
 *(11) NIS - NANOSTRUCTURED INTERFACES AND SURFACES - TORINO (ITALY)           *
 *(12) MPI FUER CHEMISCHE ENERGIEKONVERSION - MUELHEIM AN DER RUHR (GERMANY)   *
 *(13) UNIVERSITY OF STOCKHOLM - STOCKHOLM (SWEDEN)                            *
 *(14) UNIVERSITE' DE PAU ET DES PAYS DE L'ADOUR - PAU (FRANCE)                *
 *(15) UNIVERSITY OF CALIFORNIA SANTA BARBARA - SANTA BARBARA (USA)            *
 *(16) CURTIN UNIVERSITY - PERTH (AUSTRALIA)                                   *
 *                                                                             *
 ********************************************************************************
 EEEEEEEEEE STARTING  DATE 03 12 2014 TIME 12:42:16.4
 KMnF3 AF 4.19 rete k 4 4 4                                                      

 CRYSTAL CALCULATION
 (INPUT ACCORDING TO THE INTERNATIONAL TABLES FOR X-RAY CRYSTALLOGRAPHY)
 CRYSTAL FAMILY                       :  CUBIC       
 CRYSTAL CLASS  (GROTH - 1921)        :  CUBIC HEXAKISOCTAHEDRAL              

 SPACE GROUP (CENTROSYMMETRIC)        :  P M 3 M         

 LATTICE PARAMETERS  (ANGSTROMS AND DEGREES) - CONVENTIONAL CELL
        A           B           C        ALPHA        BETA       GAMMA
     4.19000     4.19000     4.19000    90.00000    90.00000    90.00000


 NUMBER OF IRREDUCIBLE ATOMS IN THE CONVENTIONAL CELL:    3

 INPUT COORDINATES

 ATOM AT. N.              COORDINATES
   1  25     0.000000000000E+00  0.000000000000E+00  0.000000000000E+00
   2   9     5.000000000000E-01  0.000000000000E+00  0.000000000000E+00
   3  19     5.000000000000E-01  5.000000000000E-01  5.000000000000E-01

 *******************************************************************************

 << INFORMATION >>: FROM NOW ON, ALL COORDINATES REFER TO THE PRIMITIVE CELL

 *******************************************************************************

 LATTICE PARAMETERS  (ANGSTROMS AND DEGREES) - PRIMITIVE CELL
       A          B          C         ALPHA     BETA     GAMMA        VOLUME
    4.19000    4.19000    4.19000    90.00000  90.00000  90.00000     73.560059

 COORDINATES OF THE EQUIVALENT ATOMS (FRACTIONAL UNITS)

 N. ATOM EQUIV AT. N.          X                  Y                  Z

   1   1   1   25 MN    0.00000000000E+00  0.00000000000E+00  0.00000000000E+00

   2   2   1    9 F    -5.00000000000E-01  0.00000000000E+00  0.00000000000E+00
   3   2   2    9 F     0.00000000000E+00 -5.00000000000E-01  0.00000000000E+00
   4   2   3    9 F     0.00000000000E+00  0.00000000000E+00 -5.00000000000E-01

   5   3   1   19 K    -5.00000000000E-01 -5.00000000000E-01 -5.00000000000E-01

 NUMBER OF SYMMETRY OPERATORS         :   48
 *******************************************************************************
 * GEOMETRY EDITING - INPUT COORDINATES ARE GIVEN IN ANGSTROM         
 *******************************************************************************

 GEOMETRY NOW FULLY CONSISTENT WITH THE GROUP

 NO SYMMOPS WITH FINITE TRANSLATIONAL COMPONENT

 *******************************************************************************
 * SUPERCELL OPTION
 *******************************************************************************

 INFORMATION **** GEXPAD **** SUPERCELL VOLUME NEGATIVE ? - SIGN OF EXPANSION MATRIX REVERSED

        EXPANSION MATRIX OF PRIMITIVE CELL
 E1    -1.000    -1.000     0.000
 E2     1.000     0.000     1.000
 E3     0.000     1.000     1.000

 NUMBER OF ATOMS PER SUPERCELL   10

        DIRECT LATTICE VECTORS COMPONENTS (ANGSTROM)
 B1    -4.190    -4.190     0.000
 B2     4.190     0.000     4.190
 B3     0.000     4.190     4.190

 LATTICE PARAMETERS  (ANGSTROM AND DEGREES)
       A          B          C         ALPHA     BETA     GAMMA        VOLUME
    5.92555    5.92555    5.92555    60.00000 120.00000 120.00000    147.120118


 **** ATOMS BELONGING TO THE SUPERCELL
 LABEL AT.NO.      COORDINATES (ANGSTROM AND FRACTIONAL)
     1    25     0.0000     0.0000     0.0000     0.0000     0.0000     0.0000
     2    25     0.0000     0.0000    -4.1900    -0.5000    -0.5000    -0.5000
     3     9    -2.0950     0.0000     0.0000     0.2500    -0.2500     0.2500
     4     9     2.0950     0.0000     0.0000    -0.2500     0.2500    -0.2500
     5     9     0.0000    -2.0950     0.0000     0.2500     0.2500    -0.2500
     6     9     0.0000     2.0950     0.0000    -0.2500    -0.2500     0.2500
     7     9     0.0000     0.0000    -2.0950    -0.2500    -0.2500    -0.2500
     8     9     0.0000     0.0000     2.0950     0.2500     0.2500     0.2500
     9    19    -2.0950    -2.0950    -2.0950     0.2500    -0.2500    -0.2500
    10    19     2.0950     2.0950     2.0950    -0.2500     0.2500     0.2500

 **************************** SUPERCELL GENERATED ****************************

 GCALCO - MAX INDICES DIRECT LATTICE VECTOR    14    14    14
 NO.OF VECTORS CREATED 6999 STARS  105 RMAX   118.50506 BOHR

 GEOMETRY FOR WAVE FUNCTION - DIMENSIONALITY OF THE SYSTEM    3
 (NON PERIODIC DIRECTION: LATTICE PARAMETER FORMALLY SET TO 500)
 *******************************************************************************
 LATTICE PARAMETERS (ANGSTROMS AND DEGREES) - BOHR = 0.5291772083 ANGSTROM
 PRIMITIVE CELL - CENTRING CODE 1/0 VOLUME=   147.120118 - DENSITY  3.406 g/cm^3
         A              B              C           ALPHA      BETA       GAMMA 
     5.92555483     5.92555483     5.92555483    60.000000 120.000000 120.000000
 *******************************************************************************
 ATOMS IN THE ASYMMETRIC UNIT    4 - ATOMS IN THE UNIT CELL:   10
     ATOM              X/A                 Y/B                 Z/C    
 *******************************************************************************
   1 T  25 MN    0.000000000000E+00  0.000000000000E+00  0.000000000000E+00
   2 T  25 MN   -5.000000000000E-01  5.000000000000E-01  5.000000000000E-01
   3 T   9 F     2.500000000000E-01 -2.500000000000E-01  2.500000000000E-01
   4 F   9 F    -2.500000000000E-01  2.500000000000E-01 -2.500000000000E-01
   5 F   9 F     2.500000000000E-01  2.500000000000E-01 -2.500000000000E-01
   6 F   9 F    -2.500000000000E-01 -2.500000000000E-01  2.500000000000E-01
   7 F   9 F    -2.500000000000E-01 -2.500000000000E-01 -2.500000000000E-01
   8 F   9 F     2.500000000000E-01  2.500000000000E-01  2.500000000000E-01
   9 T  19 K     2.500000000000E-01 -2.500000000000E-01 -2.500000000000E-01
  10 F  19 K    -2.500000000000E-01  2.500000000000E-01  2.500000000000E-01

 T = ATOM BELONGING TO THE ASYMMETRIC UNIT

 ****   48 SYMMOPS - TRANSLATORS IN FRACTIONAL UNITS
 **** MATRICES AND TRANSLATORS IN THE CRYSTALLOGRAPHIC REFERENCE FRAME
   V INV                    ROTATION MATRICES                   TRANSLATORS
   1   1  1.00  0.00  0.00  0.00  1.00  0.00  0.00  0.00  1.00  0.00  0.00  0.00
   2   2 -1.00  1.00  1.00  0.00  0.00  1.00  0.00  1.00  0.00  0.00  0.00  0.00
   3   3  0.00 -1.00  0.00 -1.00  0.00  0.00  1.00 -1.00 -1.00  0.00  0.00  0.00
   4   4  0.00  0.00 -1.00  1.00 -1.00 -1.00 -1.00  0.00  0.00  0.00  0.00  0.00
   5   6  0.00 -1.00  0.00  0.00  0.00  1.00 -1.00  0.00  0.00  0.00  0.00  0.00
   6   5  0.00  0.00 -1.00 -1.00  0.00  0.00  0.00  1.00  0.00  0.00  0.00  0.00
   7   8 -1.00  1.00  1.00 -1.00  0.00  0.00  0.00  0.00  1.00  0.00  0.00  0.00
   8   7  0.00 -1.00  0.00  1.00 -1.00 -1.00  0.00  0.00  1.00  0.00  0.00  0.00
   9  10  0.00  0.00 -1.00  0.00  1.00  0.00  1.00 -1.00 -1.00  0.00  0.00  0.00
  10   9 -1.00  1.00  1.00  0.00  1.00  0.00 -1.00  0.00  0.00  0.00  0.00  0.00
  11  12  1.00  0.00  0.00  1.00 -1.00 -1.00  0.00  1.00  0.00  0.00  0.00  0.00
  12  11  1.00  0.00  0.00  0.00  0.00  1.00  1.00 -1.00 -1.00  0.00  0.00  0.00
  13  13 -1.00  0.00  0.00  0.00  0.00 -1.00  0.00 -1.00  0.00  0.00  0.00  0.00
  14  14  1.00 -1.00 -1.00  0.00 -1.00  0.00  0.00  0.00 -1.00  0.00  0.00  0.00
  15  16  0.00  1.00  0.00 -1.00  1.00  1.00  1.00  0.00  0.00  0.00  0.00  0.00
  16  15  0.00  0.00  1.00  1.00  0.00  0.00 -1.00  1.00  1.00  0.00  0.00  0.00
  17  17  0.00  1.00  0.00  1.00  0.00  0.00  0.00  0.00 -1.00  0.00  0.00  0.00
  18  18  0.00  0.00  1.00  0.00 -1.00  0.00  1.00  0.00  0.00  0.00  0.00  0.00
  19  21  1.00 -1.00 -1.00  0.00  0.00 -1.00  1.00  0.00  0.00  0.00  0.00  0.00
  20  22  0.00  1.00  0.00  0.00  0.00 -1.00 -1.00  1.00  1.00  0.00  0.00  0.00
  21  19  0.00  0.00  1.00 -1.00  1.00  1.00  0.00 -1.00  0.00  0.00  0.00  0.00
  22  20  1.00 -1.00 -1.00  1.00  0.00  0.00  0.00 -1.00  0.00  0.00  0.00  0.00
  23  23 -1.00  0.00  0.00  0.00 -1.00  0.00 -1.00  1.00  1.00  0.00  0.00  0.00
  24  24 -1.00  0.00  0.00 -1.00  1.00  1.00  0.00  0.00 -1.00  0.00  0.00  0.00
  25  25 -1.00  0.00  0.00  0.00 -1.00  0.00  0.00  0.00 -1.00  0.00  0.00  0.00
  26  26  1.00 -1.00 -1.00  0.00  0.00 -1.00  0.00 -1.00  0.00  0.00  0.00  0.00
  27  27  0.00  1.00  0.00  1.00  0.00  0.00 -1.00  1.00  1.00  0.00  0.00  0.00
  28  28  0.00  0.00  1.00 -1.00  1.00  1.00  1.00  0.00  0.00  0.00  0.00  0.00
  29  30  0.00  1.00  0.00  0.00  0.00 -1.00  1.00  0.00  0.00  0.00  0.00  0.00
  30  29  0.00  0.00  1.00  1.00  0.00  0.00  0.00 -1.00  0.00  0.00  0.00  0.00
  31  32  1.00 -1.00 -1.00  1.00  0.00  0.00  0.00  0.00 -1.00  0.00  0.00  0.00
  32  31  0.00  1.00  0.00 -1.00  1.00  1.00  0.00  0.00 -1.00  0.00  0.00  0.00
  33  34  0.00  0.00  1.00  0.00 -1.00  0.00 -1.00  1.00  1.00  0.00  0.00  0.00
  34  33  1.00 -1.00 -1.00  0.00 -1.00  0.00  1.00  0.00  0.00  0.00  0.00  0.00
  35  36 -1.00  0.00  0.00 -1.00  1.00  1.00  0.00 -1.00  0.00  0.00  0.00  0.00
  36  35 -1.00  0.00  0.00  0.00  0.00 -1.00 -1.00  1.00  1.00  0.00  0.00  0.00
  37  37  1.00  0.00  0.00  0.00  0.00  1.00  0.00  1.00  0.00  0.00  0.00  0.00
  38  38 -1.00  1.00  1.00  0.00  1.00  0.00  0.00  0.00  1.00  0.00  0.00  0.00
  39  40  0.00 -1.00  0.00  1.00 -1.00 -1.00 -1.00  0.00  0.00  0.00  0.00  0.00
  40  39  0.00  0.00 -1.00 -1.00  0.00  0.00  1.00 -1.00 -1.00  0.00  0.00  0.00
  41  41  0.00 -1.00  0.00 -1.00  0.00  0.00  0.00  0.00  1.00  0.00  0.00  0.00
  42  42  0.00  0.00 -1.00  0.00  1.00  0.00 -1.00  0.00  0.00  0.00  0.00  0.00
  43  45 -1.00  1.00  1.00  0.00  0.00  1.00 -1.00  0.00  0.00  0.00  0.00  0.00
  44  46  0.00 -1.00  0.00  0.00  0.00  1.00  1.00 -1.00 -1.00  0.00  0.00  0.00
  45  43  0.00  0.00 -1.00  1.00 -1.00 -1.00  0.00  1.00  0.00  0.00  0.00  0.00
  46  44 -1.00  1.00  1.00 -1.00  0.00  0.00  0.00  1.00  0.00  0.00  0.00  0.00
  47  47  1.00  0.00  0.00  0.00  1.00  0.00  1.00 -1.00 -1.00  0.00  0.00  0.00
  48  48  1.00  0.00  0.00  1.00 -1.00 -1.00  0.00  0.00  1.00  0.00  0.00  0.00

 DIRECT LATTICE VECTORS CARTESIAN COMPONENTS (ANGSTROM)
          X                    Y                    Z
  -0.419000000000E+01  -0.419000000000E+01   0.000000000000E+00
   0.419000000000E+01   0.000000000000E+00   0.419000000000E+01
   0.000000000000E+00   0.419000000000E+01   0.419000000000E+01


 CARTESIAN COORDINATES - PRIMITIVE CELL
 *******************************************************************************
 *      ATOM          X(ANGSTROM)         Y(ANGSTROM)         Z(ANGSTROM)
 *******************************************************************************
    1    25 MN    0.000000000000E+00  0.000000000000E+00  0.000000000000E+00
    2    25 MN    0.000000000000E+00  0.000000000000E+00  4.190000000000E+00
    3     9 F    -2.095000000000E+00 -2.350018883046E-16  0.000000000000E+00
    4     9 F     2.095000000000E+00  2.350018883046E-16  0.000000000000E+00
    5     9 F    -2.350018883046E-16 -2.095000000000E+00  0.000000000000E+00
    6     9 F     2.350018883046E-16  2.095000000000E+00  0.000000000000E+00
    7     9 F     2.350018883046E-16  2.350018883046E-16 -2.095000000000E+00
    8     9 F    -2.350018883046E-16 -2.350018883046E-16  2.095000000000E+00
    9    19 K    -2.095000000000E+00 -2.095000000000E+00 -2.095000000000E+00
   10    19 K     2.095000000000E+00  2.095000000000E+00  2.095000000000E+00

 *******************************************************************************
 LOCAL ATOMIC FUNCTIONS BASIS SET
 *******************************************************************************
   ATOM   X(AU)   Y(AU)   Z(AU)  N. TYPE  EXPONENT  S COEF   P COEF   D/F/G COEF
 *******************************************************************************
   1 MN   0.000   0.000   0.000
                                  1 S  
                                         2.926E+05 2.270E-04 0.000E+00 0.000E+00
                                         4.226E+04 1.900E-03 0.000E+00 0.000E+00
                                         8.947E+03 1.110E-02 0.000E+00 0.000E+00
                                         2.330E+03 5.010E-02 0.000E+00 0.000E+00
                                         7.020E+02 1.705E-01 0.000E+00 0.000E+00
                                         2.429E+02 3.691E-01 0.000E+00 0.000E+00
                                         9.495E+01 4.035E-01 0.000E+00 0.000E+00
                                         3.958E+01 1.437E-01 0.000E+00 0.000E+00
                             2-   5 SP 
                                         7.321E+02-5.300E-03 8.600E-03 0.000E+00
                                         1.756E+02-6.730E-02 6.120E-02 0.000E+00
                                         5.851E+01-1.293E-01 2.135E-01 0.000E+00
                                         2.313E+01 2.535E-01 4.018E-01 0.000E+00
                                         9.754E+00 6.345E-01 4.012E-01 0.000E+00
                                         3.454E+00 2.714E-01 2.222E-01 0.000E+00
                             6-   9 SP 
                                         3.839E+01 1.570E-02-3.110E-02 0.000E+00
                                         1.544E+01-2.535E-01-9.690E-02 0.000E+00
                                         6.178E+00-8.648E-01 2.563E-01 0.000E+00
                                         2.824E+00 9.337E-01 1.655E+00 0.000E+00
                            10-  13 SP 
                                         1.209E+00 1.000E+00 1.000E+00 0.000E+00
                            14-  17 SP 
                                         4.986E-01 1.000E+00 1.000E+00 0.000E+00
                            18-  22 D  
                                         2.259E+01 0.000E+00 0.000E+00 7.080E-02
                                         6.167E+00 0.000E+00 0.000E+00 3.044E-01
                                         2.064E+00 0.000E+00 0.000E+00 5.469E-01
                                         7.401E-01 0.000E+00 0.000E+00 5.102E-01
                            23-  27 D  
                                         2.490E-01 0.000E+00 0.000E+00 1.000E+00
   2 MN   0.000   0.000   7.918
   3 F   -3.959   0.000   0.000
                                 55 S  
                                         1.377E+04 8.770E-04 0.000E+00 0.000E+00
                                         1.590E+03 9.150E-03 0.000E+00 0.000E+00
                                         3.265E+02 4.860E-02 0.000E+00 0.000E+00
                                         9.166E+01 1.691E-01 0.000E+00 0.000E+00
                                         3.046E+01 3.708E-01 0.000E+00 0.000E+00
                                         1.150E+01 4.165E-01 0.000E+00 0.000E+00
                                         4.760E+00 1.306E-01 0.000E+00 0.000E+00
                            56-  59 SP 
                                         1.900E+01-1.094E-01 1.244E-01 0.000E+00
                                         4.530E+00-1.289E-01 5.323E-01 0.000E+00
                                         1.387E+00 1.000E+00 1.000E+00 0.000E+00
                            60-  63 SP 
                                         4.400E-01 1.000E+00 1.000E+00 0.000E+00
                            64-  67 SP 
                                         1.790E-01 1.000E+00 1.000E+00 0.000E+00
   4 F    3.959   0.000   0.000
   5 F    0.000  -3.959   0.000
   6 F    0.000   3.959   0.000
   7 F    0.000   0.000  -3.959
   8 F    0.000   0.000   3.959
   9 K   -3.959  -3.959  -3.959
                                133 S  
                                         1.725E+05 2.200E-04 0.000E+00 0.000E+00
                                         2.432E+04 1.920E-03 0.000E+00 0.000E+00
                                         5.140E+03 1.109E-02 0.000E+00 0.000E+00
                                         1.344E+03 4.992E-02 0.000E+00 0.000E+00
                                         4.045E+02 1.702E-01 0.000E+00 0.000E+00
                                         1.394E+02 3.679E-01 0.000E+00 0.000E+00
                                         5.439E+01 4.036E-01 0.000E+00 0.000E+00
                                         2.271E+01 1.459E-01 0.000E+00 0.000E+00
                           134- 137 SP 
                                         4.020E+02-6.030E-03 8.410E-03 0.000E+00
                                         9.350E+01-8.050E-02 6.020E-02 0.000E+00
                                         3.075E+01-1.094E-01 2.117E-01 0.000E+00
                                         1.192E+01 2.580E-01 3.726E-01 0.000E+00
                                         5.167E+00 6.840E-01 4.022E-01 0.000E+00
                                         1.582E+00 3.990E-01 1.860E-01 0.000E+00
                           138- 141 SP 
                                         1.735E+01-7.400E-03-3.210E-02 0.000E+00
                                         7.550E+00-1.290E-01-6.200E-02 0.000E+00
                                         2.939E+00-6.834E-01 1.691E-01 0.000E+00
                                         1.190E+00 1.080E+00 1.500E+00 0.000E+00
                                         6.740E-01 1.030E+00 1.060E+00 0.000E+00
                           142- 145 SP 
                                         3.890E-01 1.000E+00 1.000E+00 0.000E+00
                           146- 149 SP 
                                         2.160E-01 1.000E+00 1.000E+00 0.000E+00
  10 K    3.959   3.959   3.959
 INFORMATION **** SET_MPP **** PCRYSTAL CALCULATION
 INFORMATION **** READM2 **** NEW DEFAULT: FOCK/KS MATRIX MIXING SET TO 30 %
 INFORMATION **** READM2 **** NEW DEFAULT: FULL DIRECT SCF MODE
 INFORMATION **** READM2 **** NEW DEFAULT: COULOMB BIPOLAR BUFFER SET TO 32 Mb
 INFORMATION **** READM2 **** NEW DEFAULT: EXCHANGE BIPOLAR BUFFER SET TO 32 Mb
 INFORMATION **** UHF **** SPIN POLARIZED SOLUTIONS ALLOWED
 INFORMATION **** TOLINTEG **** COULOMB AND EXCHANGE SERIES TOLERANCES MODIFIED
 INFORMATION **** MULPOPAN ****  MULLIKEN POPULATION ANALYSIS AT THE END OF SCF
 INFORMATION **** SPINLOCK **** LOCK IN A GIVEN SPIN STATE
 ALPHA-BETA ELECTRONS LOCKED TO   0 FOR  30 SCF CYCLES
 INFORMATION **** LEVSHIFT **** LEVEL SHIFTER ACTIVE
 INFORMATION **** TOLDEE **** SCF TOL ON TOTAL ENERGY SET TO           7
 *******************************************************************************
 N. OF ATOMS PER CELL        10  COULOMB OVERLAP TOL         (T1) 10**   -7
 NUMBER OF SHELLS            48  COULOMB PENETRATION TOL     (T2) 10**   -7
 NUMBER OF AO               166  EXCHANGE OVERLAP TOL        (T3) 10**   -7
 N. OF ELECTRONS PER CELL   142  EXCHANGE PSEUDO OVP (F(G))  (T4) 10**   -7
 CORE ELECTRONS PER CELL     84  EXCHANGE PSEUDO OVP (P(G))  (T5) 10**  -14
 N. OF SYMMETRY OPERATORS    48  POLE ORDER IN MONO ZONE                  4
 *******************************************************************************
 TYPE OF CALCULATION :  UNRESTRICTED OPEN SHELL
 HARTREE-FOCK HAMILTONIAN
 EIGENVALUE LEVEL SHIFTING OF  0.600 HARTREE
 LOCKING - FERMI ENERGY ALTERED BY LEVEL SHIFTER

 CAPPA:IS1  4;IS2  4;IS3  4; K PTS MONK NET   8; SYMMOPS:K SPACE  48;G SPACE  48

 *******************************************************************************
 MAX NUMBER OF SCF CYCLES      50  CONVERGENCE ON DELTAP        10**-17
 WEIGHT OF F(I) IN F(I+1)      30% CONVERGENCE ON ENERGY        10**- 7
 EIGENVALUE LEVEL SHIFTING OF  0.600 HARTREE
 LOCKING - FERMI ENERGY ALTERED BY LEVEL SHIFTER
 SHRINK. FACT.(MONKH.)    4  4  4  NUMBER OF K POINTS IN THE IBZ      8
 SHRINKING FACTOR(GILAT NET)    4  NUMBER OF K POINTS(GILAT NET)      8
 *******************************************************************************
 *** K POINTS COORDINATES (OBLIQUE COORDINATES IN UNITS OF IS =  4)
   1-R(  0  0  0)   2-C(  1  0  0)   3-R(  2  0  0)   4-C(  1  1  0)
   5-C(  2  1  0)   6-C(  3  1  0)   7-R(  2  2  0)   8-C(  1  2  1)

 DIRECT LATTICE VECTORS COMPON. (A.U.)     RECIP. LATTICE VECTORS COMPON. (A.U.) 
        X            Y            Z              X            Y            Z
   -7.9179525   -7.9179525    0.0000000     -0.3967683   -0.3967683    0.3967683
    7.9179525    0.0000000    7.9179525      0.3967683   -0.3967683    0.3967683
    0.0000000    7.9179525    7.9179525     -0.3967683    0.3967683    0.3967683

 DISK SPACE FOR EIGENVECTORS (FTN 10)      358228 REALS

 SYMMETRY ADAPTION OF THE BLOCH FUNCTIONS ENABLED

 MATRIX SIZE: P(G)  219526, F(G)   40810, P(G) IRR    7719, F(G) IRR    4037
 MAX G-VECTOR INDEX FOR 1- AND 2-ELECTRON INTEGRALS  87

 TTTTTTTTTTTTTTTTTTTTTTTTTTTTTT INPUT       TELAPSE        0.03 TCPU        0.01

 NEIGHBORS OF THE NON-EQUIVALENT ATOMS

 N = NUMBER OF NEIGHBORS AT DISTANCE R
    ATOM  N     R/ANG      R/AU   NEIGHBORS (ATOM LABELS AND CELL INDICES)
   1 MN   6     2.0950     3.9590    3 F    0 0 0    4 F    0 0 0    5 F    0 0 0
                                     6 F    0 0 0    7 F    0 0 0    8 F    0 0 0
   1 MN   8     3.6286     6.8571    9 K    0 0 0    9 K   -1 0 0    9 K    0 1 0
                                     9 K    0 0 1   10 K    0 0 0   10 K    1 0 0
                                    10 K    0-1 0   10 K    0 0-1
   1 MN   6     4.1900     7.9180    2 MN   0 0 0    2 MN  -1-1 0    2 MN  -1 0-1
                                     2 MN   0-1 0    2 MN   0 0-1    2 MN  -1-1-1
   1 MN  24     4.6846     8.8525    3 F   -1 0-1    3 F   -1 0 0    3 F    0 1 0
                                     3 F    0 1-1    4 F    1 0 1    4 F    1 0 0
                                     4 F    0-1 0    4 F    0-1 1    5 F    0-1 1
                                     5 F    0 0 1    5 F   -1 0 0    5 F   -1-1 0
                                     6 F    0 1-1    6 F    0 0-1    6 F    1 0 0
                                     6 F    1 1 0    7 F    1 1 0    7 F    0 1 0
                                     7 F    0 0 1    7 F    1 0 1    8 F   -1-1 0
                                     8 F    0-1 0    8 F    0 0-1    8 F   -1 0-1
   1 MN  12     5.9256    11.1977    1 MN  -1-1 0    1 MN   1 1 0    1 MN  -1 0-1
                                     1 MN   1 0 1    1 MN  -1 0 0    1 MN   1 0 0
                                     1 MN   0-1 0    1 MN   0 1 0    1 MN   0-1 1
                                     1 MN   0 1-1    1 MN   0 0-1    1 MN   0 0 1
   1 MN  30     6.2850    11.8769    3 F    1 1 0    3 F   -1-1 0    3 F    0 0 1
                                     3 F    0 0-1    3 F   -1 1-1    4 F   -1-1 0
                                     4 F    1 1 0    4 F    0 0-1    4 F    0 0 1
                                     4 F    1-1 1    5 F   -1 0-1    5 F    1 0 1
                                     5 F    0 1 0    5 F    0-1 0    5 F   -1-1 1
                                     6 F    1 0 1    6 F   -1 0-1    6 F    0-1 0
                                     6 F    0 1 0    6 F    1 1-1    7 F    0-1 1
                                     7 F    0 1-1    7 F   -1 0 0    7 F    1 0 0
                                     7 F    1 1 1    8 F    0 1-1    8 F    0-1 1
                                     8 F    1 0 0    8 F   -1 0 0    8 F   -1-1-1

   2 MN   6     2.0950     3.9590    3 F    0 1 0    4 F    1 0 1    5 F    0 0 1
                                     6 F    1 1 0    7 F    1 1 1    8 F    0 0 0
   2 MN   8     3.6286     6.8571    9 K    0 1 0    9 K    0 0 1    9 K    1 1 1
                                     9 K    0 1 1   10 K    1 1 0   10 K    1 0 1
                                    10 K    0 0 0   10 K    1 0 0
   2 MN   6     4.1900     7.9180    1 MN   0 0 0    1 MN   1 1 0    1 MN   1 0 1
                                     1 MN   0 1 0    1 MN   0 0 1    1 MN   1 1 1
   2 MN  24     4.6846     8.8525    3 F    0 0 0    3 F    1 1 0    3 F    0 0 1
                                     3 F    1 1 1    4 F    0 0 0    4 F    0 0 1
                                     4 F    1 1 0    4 F    1 1 1    5 F    1 0 1
                                     5 F    0 0 0    5 F    1 1 1    5 F    0 1 0
                                     6 F    0 1 0    6 F    0 0 0    6 F    1 1 1
                                     6 F    1 0 1    7 F    1 1 0    7 F    1 0 1
                                     7 F    0 1 0    7 F    0 0 1    8 F    1 1 0
                                     8 F    0 1 0    8 F    1 0 1    8 F    0 0 1
   2 MN  12     5.9256    11.1977    2 MN  -1-1 0    2 MN   1 1 0    2 MN  -1 0-1
                                     2 MN   1 0 1    2 MN  -1 0 0    2 MN   1 0 0
                                     2 MN   0-1 0    2 MN   0 1 0    2 MN   0-1 1
                                     2 MN   0 1-1    2 MN   0 0-1    2 MN   0 0 1
   2 MN  30     6.2850    11.8769    3 F    1 0 1    3 F   -1 0 0    3 F    0 1-1
                                     3 F    1 2 0    3 F    0 1 1    4 F    0 1 0
                                     4 F    1 0 0    4 F    0-1 1    4 F    1 0 2
                                     4 F    2 1 1    5 F    1 1 0    5 F    1 0 2
                                     5 F    0-1 1    5 F   -1 0 0    5 F    0 1 1
                                     6 F    0 0 1    6 F    1 2 0    6 F    0 1-1
                                     6 F    1 0 0    6 F    2 1 1    7 F    0 0 0
                                     7 F    1 2 0    7 F    2 1 1    7 F    1 0 2
                                     7 F    0 1 1    8 F    1 1 1    8 F    1 0 0
                                     8 F    0 1-1    8 F   -1 0 0    8 F    0-1 1

   3 F    2     2.0950     3.9590    1 MN   0 0 0    2 MN   0-1 0
   3 F    8     2.9628     5.5988    5 F    0 0 0    5 F    0-1 1    6 F    0 0 0
                                     6 F    1 0 0    7 F    0 0 0    7 F    1 0 1
                                     8 F    0 0 0    8 F    0-1 0
   3 F    4     2.9628     5.5988    9 K    0 0 0    9 K    0 0 1   10 K    1 0 0
                                    10 K    0-1 0
   3 F    6     4.1900     7.9180    4 F    0 0 0    4 F    1 0 1    4 F    1 0 0
                                     4 F    0-1 0    4 F    0-1 1    4 F    1-1 1
   3 F    8     4.6846     8.8525    1 MN   1 0 1    1 MN   1 0 0    1 MN   0-1 0
                                     1 MN   0-1 1    2 MN   0 0 0    2 MN  -1-1 0
                                     2 MN   0 0-1    2 MN  -1-1-1
   3 F   16     5.1317     9.6975    5 F   -1-1 0    5 F    1 0 1    5 F    0-1 0
                                     5 F    0 0 1    6 F    1 1 0    6 F    0-1 0
                                     6 F    1 0 1    6 F    0 0-1    7 F    0-1 1
                                     7 F    1 1 0    7 F    0 0 1    7 F    1 0 0
                                     8 F    0-1 1    8 F    0 0-1    8 F   -1-1 0
                                     8 F    1 0 0

   9 K   12     2.9628     5.5988    3 F    0 0 0    3 F    0 0-1    4 F    1 0 0
                                     4 F    0-1 0    5 F    0 0 0    5 F    0-1 0
                                     6 F    1 0 0    6 F    0 0-1    7 F    0 0 0
                                     7 F    1 0 0    8 F    0-1 0    8 F    0 0-1
   9 K    8     3.6286     6.8571    1 MN   0 0 0    1 MN   1 0 0    1 MN   0-1 0
                                     1 MN   0 0-1    2 MN   0-1 0    2 MN   0 0-1
                                     2 MN  -1-1-1    2 MN   0-1-1
   9 K    6     4.1900     7.9180   10 K    1 0 0   10 K    0-1 0   10 K    0 0-1
                                    10 K    1 0-1   10 K    1-1 0   10 K    0-1-1
   9 K   24     5.1317     9.6975    3 F   -1 0-1    3 F    1 0 0    3 F    0-1 0
                                     3 F    0 1-1    4 F    1-1 0    4 F    0 0 0
                                     4 F    0 0-1    4 F    1-1 1    5 F    0-1 1
                                     5 F    0 0-1    5 F    1 0 0    5 F   -1-1 0
                                     6 F    1 1-1    6 F    0-1 0    6 F    0 0 0
                                     6 F    1 0-1    7 F    1 1 0    7 F    0-1 0
                                     7 F    0 0-1    7 F    1 0 1    8 F    0-1-1
                                     8 F    0 0 0    8 F    1 0 0    8 F   -1-1-1
   9 K   12     5.9256    11.1977    9 K   -1-1 0    9 K    1 1 0    9 K   -1 0-1
                                     9 K    1 0 1    9 K   -1 0 0    9 K    1 0 0
                                     9 K    0-1 0    9 K    0 1 0    9 K    0-1 1
                                     9 K    0 1-1    9 K    0 0-1    9 K    0 0 1
   9 K   24     6.6250    12.5194    3 F   -1-1 0    3 F    1 1 0    3 F   -1-1-1
                                     3 F    1 1-1    4 F    1 0-1    4 F    1 0 1
                                     4 F    0-1-1    4 F    0-1 1    5 F    1 0 1
                                     5 F   -1 0-1    5 F    1-1 1    5 F   -1-1-1
                                     6 F    1 1 0    6 F    1-1 0    6 F    0 1-1
                                     6 F    0-1-1    7 F    0 1-1    7 F    0-1 1
                                     7 F    1 1-1    7 F    1-1 1    8 F    1-1 0
                                     8 F   -1-1 0    8 F    1 0-1    8 F   -1 0-1


 SYMMETRY ALLOWED INTERNAL DEGREE(S) OF FREEDOM:   1
 TTTTTTTTTTTTTTTTTTTTTTTTTTTTTT SYMM        TELAPSE        0.03 TCPU        0.01
 TTTTTTTTTTTTTTTTTTTTTTTTTTTTTT INT_SCREEN  TELAPSE        0.03 TCPU        0.01
 INFORMATION **** EXCBUF **** EXCH. BIPO BUFFER: WORDS USED =      605367
 TTTTTTTTTTTTTTTTTTTTTTTTTTTTTT INT_CALC    TELAPSE        0.06 TCPU        0.04
 EEEEEEEEEE INT_CALC TERMINATION  DATE 03 12 2014 TIME 12:42:16.4

 *******************************************************************************
 KMnF3 AF 4.19 rete k 4 4 4                                                      
 CRYSTAL - SCF - TYPE OF CALCULATION :  UNRESTRICTED OPEN SHELL
 *******************************************************************************

 CAPPA:IS1  4;IS2  4;IS3  4; K PTS MONK NET   8; SYMMOPS:K SPACE  48;G SPACE  48

 TTTTTTTTTTTTTTTTTTTTTTTTTTTTTT SDIK        TELAPSE        0.08 TCPU        0.05

 AAAAAAAAAAAAAAAAAAAAAAAAAAAAAAAAAAAAAAAAAAAAAAAAAAAAAAAAAAAAAAAAAAAAAAAAAAAAAAA
         ATOMIC WAVEFUNCTION(S)


 NUCLEAR CHARGE 25.0  SYMMETRY SPECIES            S    P    D
 N. ELECTRONS   23.0  NUMBER OF PRIMITIVE GTOS   20   12    5
                      NUMBER OF CONTRACTED GTOS   5    4    2
                      NUMBER OF CLOSED SHELLS     3    2    0
                      OPEN SHELL OCCUPATION       0    0    5

  ZNUC SCFIT  TOTAL HF ENERGY   KINETIC ENERGY   VIRIAL THEOREM ACCURACY
  25.0  25   -1.149037824E+03  1.148794997E+03 -2.000211375E+00  4.6E-06

 NUCLEAR CHARGE  9.0  SYMMETRY SPECIES            S    P
 N. ELECTRONS   10.0  NUMBER OF PRIMITIVE GTOS   12    5
                      NUMBER OF CONTRACTED GTOS   4    3
                      NUMBER OF CLOSED SHELLS     2    1
                      OPEN SHELL OCCUPATION       0    0

  ZNUC SCFIT  TOTAL HF ENERGY   KINETIC ENERGY   VIRIAL THEOREM ACCURACY
   9.0  28   -9.941465138E+01  9.937084613E+01 -2.000440826E+00  3.8E-06

 NUCLEAR CHARGE 19.0  SYMMETRY SPECIES            S    P
 N. ELECTRONS   18.0  NUMBER OF PRIMITIVE GTOS   21   13
                      NUMBER OF CONTRACTED GTOS   5    4
                      NUMBER OF CLOSED SHELLS     3    2
                      OPEN SHELL OCCUPATION       0    0

  ZNUC SCFIT  TOTAL HF ENERGY   KINETIC ENERGY   VIRIAL THEOREM ACCURACY
  19.0   8   -5.989803225E+02  5.986852286E+02 -2.000492903E+00  1.3E-06

 AAAAAAAAAAAAAAAAAAAAAAAAAAAAAAAAAAAAAAAAAAAAAAAAAAAAAAAAAAAAAAAAAAAAAAAAAAAAAAA

 CHARGE NORMALIZATION FACTOR   1.00000000
 TOTAL ATOMIC CHARGES:
  23.0000000  23.0000000  10.0000000  10.0000000  10.0000000  10.0000000
  10.0000000  10.0000000  18.0000000  18.0000000
 SUMMED SPIN DENSITY           0.00000000
 TOTAL ATOMIC SPINS  :
   0.0000000   0.0000000   0.0000000   0.0000000   0.0000000   0.0000000
   0.0000000   0.0000000   0.0000000   0.0000000
 TTTTTTTTTTTTTTTTTTTTTTTTTTTTTT MOQGAD      TELAPSE        0.12 TCPU        0.09
 TTTTTTTTTTTTTTTTTTTTTTTTTTTTTT SHELLX2     TELAPSE        6.80 TCPU        6.78
 TTTTTTTTTTTTTTTTTTTTTTTTTTTTTT MONMO3      TELAPSE        6.94 TCPU        6.92
 CYC   0 ETOT(AU) -4.093885796810E+03 DETOT -4.09E+03 tst  0.00E+00 PX  1.00E+00
 TTTTTTTTTTTTTTTTTTTTTTTTTTTTTT FDIK        TELAPSE        7.02 TCPU        7.00

    ALPHA      ELECTRONS
 INSULATING STATE - LEVEL SHIFTER    0.60 au
 TOP OF VALENCE BANDS -    BAND     71; K    1; EIG -1.0000000E+00 AU
 BOTTOM OF VIRTUAL BANDS - BAND     72; K    1; EIG  1.0000000E+00 AU

    BETA       ELECTRONS
 INSULATING STATE - LEVEL SHIFTER    0.60 au
 TOP OF VALENCE BANDS -    BAND     71; K    1; EIG -1.0000000E+00 AU
 BOTTOM OF VIRTUAL BANDS - BAND     72; K    1; EIG  1.0000000E+00 AU
 TTTTTTTTTTTTTTTTTTTTTTTTTTTTTT PDIG        TELAPSE        7.04 TCPU        7.02
 CHARGE NORMALIZATION FACTOR   1.00220556
 TOTAL ATOMIC CHARGES:
  23.2913304  23.2913304   9.8874109   9.8874109   9.8874109   9.8874109
   9.8874109   9.8874109  18.0464370  18.0464370
 SUMMED SPIN DENSITY           0.00000000
 TOTAL ATOMIC SPINS  :
   0.0000000   0.0000000   0.0000000   0.0000000   0.0000000   0.0000000
   0.0000000   0.0000000   0.0000000   0.0000000
 TTTTTTTTTTTTTTTTTTTTTTTTTTTTTT MOQGAD      TELAPSE        7.07 TCPU        7.06
 TTTTTTTTTTTTTTTTTTTTTTTTTTTTTT SHELLX2     TELAPSE       14.07 TCPU       14.05
 TTTTTTTTTTTTTTTTTTTTTTTTTTTTTT MONMO3      TELAPSE       14.20 TCPU       14.18
 CYC   1 ETOT(AU) -4.099608089573E+03 DETOT -5.72E+00 tst  0.00E+00 PX  1.00E+00
 TTTTTTTTTTTTTTTTTTTTTTTTTTTTTT FDIK        TELAPSE       14.24 TCPU       14.22

    ALPHA      ELECTRONS
 INSULATING STATE - LEVEL SHIFTER    0.60 au
 TOP OF VALENCE BANDS -    BAND     71; K    1; EIG -1.0000000E+00 AU
 BOTTOM OF VIRTUAL BANDS - BAND     72; K    1; EIG  1.0000000E+00 AU

    BETA       ELECTRONS
 INSULATING STATE - LEVEL SHIFTER    0.60 au
 TOP OF VALENCE BANDS -    BAND     71; K    1; EIG -1.0000000E+00 AU
 BOTTOM OF VIRTUAL BANDS - BAND     72; K    1; EIG  1.0000000E+00 AU
 TTTTTTTTTTTTTTTTTTTTTTTTTTTTTT PDIG        TELAPSE       14.25 TCPU       14.24
 CHARGE NORMALIZATION FACTOR   0.99605436
 TOTAL ATOMIC CHARGES:
  23.6001181  23.6001263   9.8221311   9.8221311   9.8221311   9.8221311
   9.8221311   9.8221311  17.9334846  17.9334846
 SUMMED SPIN DENSITY           0.00000000
 TOTAL ATOMIC SPINS  :
   0.0000000   0.0000000   0.0000000   0.0000000   0.0000000   0.0000000
   0.0000000   0.0000000   0.0000000   0.0000000
 TTTTTTTTTTTTTTTTTTTTTTTTTTTTTT MOQGAD      TELAPSE       14.29 TCPU       14.27
 TTTTTTTTTTTTTTTTTTTTTTTTTTTTTT SHELLX2     TELAPSE       21.32 TCPU       21.31
 TTTTTTTTTTTTTTTTTTTTTTTTTTTTTT MONMO3      TELAPSE       21.45 TCPU       21.44
 CYC   2 ETOT(AU) -4.084422671552E+03 DETOT  1.52E+01 tst  3.88E-03 PX  1.88E-01
 TTTTTTTTTTTTTTTTTTTTTTTTTTTTTT FDIK        TELAPSE       21.49 TCPU       21.48

    ALPHA      ELECTRONS
 INSULATING STATE - LEVEL SHIFTER    0.60 au
 TOP OF VALENCE BANDS -    BAND     71; K    1; EIG -1.0000000E+00 AU
 BOTTOM OF VIRTUAL BANDS - BAND     72; K    1; EIG  1.0000000E+00 AU

    BETA       ELECTRONS
 INSULATING STATE - LEVEL SHIFTER    0.60 au
 TOP OF VALENCE BANDS -    BAND     71; K    1; EIG -1.0000000E+00 AU
 BOTTOM OF VIRTUAL BANDS - BAND     72; K    1; EIG  1.0000000E+00 AU
 TTTTTTTTTTTTTTTTTTTTTTTTTTTTTT PDIG        TELAPSE       21.50 TCPU       21.49
 CHARGE NORMALIZATION FACTOR   1.00220556
 TOTAL ATOMIC CHARGES:
  23.2879238  23.2879320   9.8883625   9.8883625   9.8883625   9.8883625
   9.8883625   9.8883625  18.0469845  18.0469845
 SUMMED SPIN DENSITY           0.00000000
 TOTAL ATOMIC SPINS  :
   0.0000000   0.0000000   0.0000000   0.0000000   0.0000000   0.0000000
   0.0000000   0.0000000   0.0000000   0.0000000
 TTTTTTTTTTTTTTTTTTTTTTTTTTTTTT MOQGAD      TELAPSE       21.54 TCPU       21.53
 TTTTTTTTTTTTTTTTTTTTTTTTTTTTTT SHELLX2     TELAPSE       28.60 TCPU       28.60
 TTTTTTTTTTTTTTTTTTTTTTTTTTTTTT MONMO3      TELAPSE       28.74 TCPU       28.73
 CYC   3 ETOT(AU) -4.099704031096E+03 DETOT -1.53E+01 tst  4.07E-03 PX  9.83E-02
 TTTTTTTTTTTTTTTTTTTTTTTTTTTTTT FDIK        TELAPSE       28.78 TCPU       28.77

    ALPHA      ELECTRONS
 INSULATING STATE - LEVEL SHIFTER    0.60 au
 TOP OF VALENCE BANDS -    BAND     71; K    1; EIG -1.0000000E+00 AU
 BOTTOM OF VIRTUAL BANDS - BAND     72; K    1; EIG  1.0000000E+00 AU

    BETA       ELECTRONS
 INSULATING STATE - LEVEL SHIFTER    0.60 au
 TOP OF VALENCE BANDS -    BAND     71; K    1; EIG -1.0000000E+00 AU
 BOTTOM OF VIRTUAL BANDS - BAND     72; K    1; EIG  1.0000000E+00 AU
 TTTTTTTTTTTTTTTTTTTTTTTTTTTTTT PDIG        TELAPSE       28.79 TCPU       28.78
 CHARGE NORMALIZATION FACTOR   0.99605436
 TOTAL ATOMIC CHARGES:
  23.5672239  23.5672332   9.8328825   9.8328825   9.8328825   9.8328825
   9.8328825   9.8328825  17.9341241  17.9341241
 SUMMED SPIN DENSITY           0.00000000
 TOTAL ATOMIC SPINS  :
   0.0000000   0.0000000   0.0000000   0.0000000   0.0000000   0.0000000
   0.0000000   0.0000000   0.0000000   0.0000000
 TTTTTTTTTTTTTTTTTTTTTTTTTTTTTT MOQGAD      TELAPSE       28.83 TCPU       28.82
 TTTTTTTTTTTTTTTTTTTTTTTTTTTTTT SHELLX2     TELAPSE       35.99 TCPU       35.98
 TTTTTTTTTTTTTTTTTTTTTTTTTTTTTT MONMO3      TELAPSE       36.11 TCPU       36.11
 CYC   4 ETOT(AU) -4.084445855830E+03 DETOT  1.53E+01 tst  1.64E-03 PX  1.24E-01
 TTTTTTTTTTTTTTTTTTTTTTTTTTTTTT FDIK        TELAPSE       36.15 TCPU       36.15

    ALPHA      ELECTRONS
 INSULATING STATE - LEVEL SHIFTER    0.60 au
 TOP OF VALENCE BANDS -    BAND     71; K    1; EIG -1.0000000E+00 AU
 BOTTOM OF VIRTUAL BANDS - BAND     72; K    1; EIG  1.0000000E+00 AU

    BETA       ELECTRONS
 INSULATING STATE - LEVEL SHIFTER    0.60 au
 TOP OF VALENCE BANDS -    BAND     71; K    1; EIG -1.0000000E+00 AU
 BOTTOM OF VIRTUAL BANDS - BAND     72; K    1; EIG  1.0000000E+00 AU
 TTTTTTTTTTTTTTTTTTTTTTTTTTTTTT PDIG        TELAPSE       36.17 TCPU       36.16
 CHARGE NORMALIZATION FACTOR   1.00220556
 TOTAL ATOMIC CHARGES:
  23.2672691  23.2672780   9.8951427   9.8951427   9.8951427   9.8951427
   9.8951427   9.8951427  18.0472985  18.0472985
 SUMMED SPIN DENSITY           0.00000000
 TOTAL ATOMIC SPINS  :
   0.0000000   0.0000000   0.0000000   0.0000000   0.0000000   0.0000000
   0.0000000   0.0000000   0.0000000   0.0000000
 TTTTTTTTTTTTTTTTTTTTTTTTTTTTTT MOQGAD      TELAPSE       36.20 TCPU       36.20
 TTTTTTTTTTTTTTTTTTTTTTTTTTTTTT SHELLX2     TELAPSE       43.34 TCPU       43.34
 TTTTTTTTTTTTTTTTTTTTTTTTTTTTTT MONMO3      TELAPSE       43.47 TCPU       43.47
 CYC   5 ETOT(AU) -4.099709770304E+03 DETOT -1.53E+01 tst  1.21E-03 PX  1.13E-01
 TTTTTTTTTTTTTTTTTTTTTTTTTTTTTT FDIK        TELAPSE       43.50 TCPU       43.51

    ALPHA      ELECTRONS
 INSULATING STATE - LEVEL SHIFTER    0.60 au
 TOP OF VALENCE BANDS -    BAND     71; K    1; EIG -1.0000000E+00 AU
 BOTTOM OF VIRTUAL BANDS - BAND     72; K    1; EIG  1.0000000E+00 AU

    BETA       ELECTRONS
 INSULATING STATE - LEVEL SHIFTER    0.60 au
 TOP OF VALENCE BANDS -    BAND     71; K    1; EIG -1.0000000E+00 AU
 BOTTOM OF VIRTUAL BANDS - BAND     72; K    1; EIG  1.0000000E+00 AU
 TTTTTTTTTTTTTTTTTTTTTTTTTTTTTT PDIG        TELAPSE       43.52 TCPU       43.52
 CHARGE NORMALIZATION FACTOR   0.99605436
 TOTAL ATOMIC CHARGES:
  23.5520371  23.5520391   9.8379176   9.8379176   9.8379176   9.8379176
   9.8379176   9.8379176  17.9342091  17.9342091
 SUMMED SPIN DENSITY           0.00000000
 TOTAL ATOMIC SPINS  :
   0.0000000   0.0000000   0.0000000   0.0000000   0.0000000   0.0000000
   0.0000000   0.0000000   0.0000000   0.0000000
 TTTTTTTTTTTTTTTTTTTTTTTTTTTTTT MOQGAD      TELAPSE       43.56 TCPU       43.56
 TTTTTTTTTTTTTTTTTTTTTTTTTTTTTT SHELLX2     TELAPSE       50.59 TCPU       50.60
 TTTTTTTTTTTTTTTTTTTTTTTTTTTTTT MONMO3      TELAPSE       50.72 TCPU       50.73
 CYC   6 ETOT(AU) -4.084449920464E+03 DETOT  1.53E+01 tst  1.01E-03 PX  1.20E-01
 TTTTTTTTTTTTTTTTTTTTTTTTTTTTTT FDIK        TELAPSE       50.76 TCPU       50.77

    ALPHA      ELECTRONS
 INSULATING STATE - LEVEL SHIFTER    0.60 au
 TOP OF VALENCE BANDS -    BAND     71; K    1; EIG -1.0000000E+00 AU
 BOTTOM OF VIRTUAL BANDS - BAND     72; K    1; EIG  1.0000000E+00 AU

    BETA       ELECTRONS
 INSULATING STATE - LEVEL SHIFTER    0.60 au
 TOP OF VALENCE BANDS -    BAND     71; K    1; EIG -1.0000000E+00 AU
 BOTTOM OF VIRTUAL BANDS - BAND     72; K    1; EIG  1.0000000E+00 AU
 TTTTTTTTTTTTTTTTTTTTTTTTTTTTTT PDIG        TELAPSE       50.78 TCPU       50.78
 CHARGE NORMALIZATION FACTOR   1.00220556
 TOTAL ATOMIC CHARGES:
  23.2599818  23.2599832   9.8975972   9.8975972   9.8975972   9.8975972
   9.8975972   9.8975972  18.0472258  18.0472258
 SUMMED SPIN DENSITY           0.00000000
 TOTAL ATOMIC SPINS  :
   0.0000000   0.0000000   0.0000000   0.0000000   0.0000000   0.0000000
   0.0000000   0.0000000   0.0000000   0.0000000
 TTTTTTTTTTTTTTTTTTTTTTTTTTTTTT MOQGAD      TELAPSE       50.81 TCPU       50.82
 TTTTTTTTTTTTTTTTTTTTTTTTTTTTTT SHELLX2     TELAPSE       57.87 TCPU       57.88
 TTTTTTTTTTTTTTTTTTTTTTTTTTTTTT MONMO3      TELAPSE       58.00 TCPU       58.01
 CYC   7 ETOT(AU) -4.099711132139E+03 DETOT -1.53E+01 tst  5.13E-04 PX  1.15E-01
 TTTTTTTTTTTTTTTTTTTTTTTTTTTTTT FDIK        TELAPSE       58.04 TCPU       58.05

    ALPHA      ELECTRONS
 INSULATING STATE - LEVEL SHIFTER    0.60 au
 TOP OF VALENCE BANDS -    BAND     71; K    1; EIG -1.0000000E+00 AU
 BOTTOM OF VIRTUAL BANDS - BAND     72; K    1; EIG  1.0000000E+00 AU

    BETA       ELECTRONS
 INSULATING STATE - LEVEL SHIFTER    0.60 au
 TOP OF VALENCE BANDS -    BAND     71; K    1; EIG -1.0000000E+00 AU
 BOTTOM OF VIRTUAL BANDS - BAND     72; K    1; EIG  1.0000000E+00 AU
 TTTTTTTTTTTTTTTTTTTTTTTTTTTTTT PDIG        TELAPSE       58.05 TCPU       58.06
 CHARGE NORMALIZATION FACTOR   0.99605436
 TOTAL ATOMIC CHARGES:
  23.5466490  23.5466399   9.8397423   9.8397423   9.8397423   9.8397423
   9.8397423   9.8397423  17.9341286  17.9341286
 SUMMED SPIN DENSITY           0.00000000
 TOTAL ATOMIC SPINS  :
   0.0000000   0.0000000   0.0000000   0.0000000   0.0000000   0.0000000
   0.0000000   0.0000000   0.0000000   0.0000000
 TTTTTTTTTTTTTTTTTTTTTTTTTTTTTT MOQGAD      TELAPSE       58.09 TCPU       58.10
 TTTTTTTTTTTTTTTTTTTTTTTTTTTTTT SHELLX2     TELAPSE       65.19 TCPU       65.20
 TTTTTTTTTTTTTTTTTTTTTTTTTTTTTT MONMO3      TELAPSE       65.32 TCPU       65.33
 CYC   8 ETOT(AU) -4.084450777460E+03 DETOT  1.53E+01 tst  7.98E-04 PX  1.18E-01
 TTTTTTTTTTTTTTTTTTTTTTTTTTTTTT FDIK        TELAPSE       65.36 TCPU       65.37

    ALPHA      ELECTRONS
 INSULATING STATE - LEVEL SHIFTER    0.60 au
 TOP OF VALENCE BANDS -    BAND     71; K    1; EIG -1.0000000E+00 AU
 BOTTOM OF VIRTUAL BANDS - BAND     72; K    1; EIG  1.0000000E+00 AU

    BETA       ELECTRONS
 INSULATING STATE - LEVEL SHIFTER    0.60 au
 TOP OF VALENCE BANDS -    BAND     71; K    1; EIG -1.0000000E+00 AU
 BOTTOM OF VIRTUAL BANDS - BAND     72; K    1; EIG  1.0000000E+00 AU
 TTTTTTTTTTTTTTTTTTTTTTTTTTTTTT PDIG        TELAPSE       65.37 TCPU       65.39
 CHARGE NORMALIZATION FACTOR   1.00220556
 TOTAL ATOMIC CHARGES:
  23.2575777  23.2575800   9.8984186   9.8984186   9.8984186   9.8984186
   9.8984186   9.8984186  18.0471653  18.0471653
 SUMMED SPIN DENSITY           0.00000000
 TOTAL ATOMIC SPINS  :
   0.0000000   0.0000000   0.0000000   0.0000000   0.0000000   0.0000000
   0.0000000   0.0000000   0.0000000   0.0000000
 TTTTTTTTTTTTTTTTTTTTTTTTTTTTTT MOQGAD      TELAPSE       65.41 TCPU       65.42
 TTTTTTTTTTTTTTTTTTTTTTTTTTTTTT SHELLX2     TELAPSE       72.52 TCPU       72.54
 TTTTTTTTTTTTTTTTTTTTTTTTTTTTTT MONMO3      TELAPSE       72.66 TCPU       72.68
 CYC   9 ETOT(AU) -4.099711390799E+03 DETOT -1.53E+01 tst  4.01E-04 PX  1.16E-01
 TTTTTTTTTTTTTTTTTTTTTTTTTTTTTT FDIK        TELAPSE       72.70 TCPU       72.71

    ALPHA      ELECTRONS
 INSULATING STATE - LEVEL SHIFTER    0.60 au
 TOP OF VALENCE BANDS -    BAND     71; K    1; EIG -1.0000000E+00 AU
 BOTTOM OF VIRTUAL BANDS - BAND     72; K    1; EIG  1.0000000E+00 AU

    BETA       ELECTRONS
 INSULATING STATE - LEVEL SHIFTER    0.60 au
 TOP OF VALENCE BANDS -    BAND     71; K    1; EIG -1.0000000E+00 AU
 BOTTOM OF VIRTUAL BANDS - BAND     72; K    1; EIG  1.0000000E+00 AU
 TTTTTTTTTTTTTTTTTTTTTTTTTTTTTT PDIG        TELAPSE       72.71 TCPU       72.73
 CHARGE NORMALIZATION FACTOR   0.99605436
 TOTAL ATOMIC CHARGES:
  23.5448770  23.5448765   9.8403493   9.8403493   9.8403493   9.8403493
   9.8403493   9.8403493  17.9340753  17.9340753
 SUMMED SPIN DENSITY           0.00000000
 TOTAL ATOMIC SPINS  :
   0.0000000   0.0000000   0.0000000   0.0000000   0.0000000   0.0000000
   0.0000000   0.0000000   0.0000000   0.0000000
 TTTTTTTTTTTTTTTTTTTTTTTTTTTTTT MOQGAD      TELAPSE       72.75 TCPU       72.77
 TTTTTTTTTTTTTTTTTTTTTTTTTTTTTT SHELLX2     TELAPSE       80.05 TCPU       80.08
 TTTTTTTTTTTTTTTTTTTTTTTTTTTTTT MONMO3      TELAPSE       80.19 TCPU       80.21
 CYC  10 ETOT(AU) -4.084451019805E+03 DETOT  1.53E+01 tst  7.86E-04 PX  1.17E-01
 TTTTTTTTTTTTTTTTTTTTTTTTTTTTTT FDIK        TELAPSE       80.23 TCPU       80.25

    ALPHA      ELECTRONS
 INSULATING STATE - LEVEL SHIFTER    0.60 au
 TOP OF VALENCE BANDS -    BAND     71; K    1; EIG -1.0000000E+00 AU
 BOTTOM OF VIRTUAL BANDS - BAND     72; K    1; EIG  1.0000000E+00 AU

    BETA       ELECTRONS
 INSULATING STATE - LEVEL SHIFTER    0.60 au
 TOP OF VALENCE BANDS -    BAND     71; K    1; EIG -1.0000000E+00 AU
 BOTTOM OF VIRTUAL BANDS - BAND     72; K    1; EIG  1.0000000E+00 AU
 TTTTTTTTTTTTTTTTTTTTTTTTTTTTTT PDIG        TELAPSE       80.24 TCPU       80.26
 CHARGE NORMALIZATION FACTOR   1.00220556
 TOTAL ATOMIC CHARGES:
  23.2569210  23.2569141   9.8986482   9.8986482   9.8986482   9.8986482
   9.8986482   9.8986482  18.0471378  18.0471378
 SUMMED SPIN DENSITY           0.00000000
 TOTAL ATOMIC SPINS  :
   0.0000000   0.0000000   0.0000000   0.0000000   0.0000000   0.0000000
   0.0000000   0.0000000   0.0000000   0.0000000
 TTTTTTTTTTTTTTTTTTTTTTTTTTTTTT MOQGAD      TELAPSE       80.28 TCPU       80.30
 TTTTTTTTTTTTTTTTTTTTTTTTTTTTTT SHELLX2     TELAPSE       87.38 TCPU       87.40
 TTTTTTTTTTTTTTTTTTTTTTTTTTTTTT MONMO3      TELAPSE       87.50 TCPU       87.53
 CYC  11 ETOT(AU) -4.099711468181E+03 DETOT -1.53E+01 tst  3.74E-04 PX  1.16E-01
 TTTTTTTTTTTTTTTTTTTTTTTTTTTTTT FDIK        TELAPSE       87.54 TCPU       87.57

    ALPHA      ELECTRONS
 INSULATING STATE - LEVEL SHIFTER    0.60 au
 TOP OF VALENCE BANDS -    BAND     71; K    1; EIG -1.0000000E+00 AU
 BOTTOM OF VIRTUAL BANDS - BAND     72; K    1; EIG  1.0000000E+00 AU

    BETA       ELECTRONS
 INSULATING STATE - LEVEL SHIFTER    0.60 au
 TOP OF VALENCE BANDS -    BAND     71; K    1; EIG -1.0000000E+00 AU
 BOTTOM OF VIRTUAL BANDS - BAND     72; K    1; EIG  1.0000000E+00 AU
 TTTTTTTTTTTTTTTTTTTTTTTTTTTTTT PDIG        TELAPSE       87.56 TCPU       87.58
 CHARGE NORMALIZATION FACTOR   0.99605436
 TOTAL ATOMIC CHARGES:
  23.5443644  23.5443463   9.8405265   9.8405265   9.8405265   9.8405265
   9.8405265   9.8405265  17.9340650  17.9340650
 SUMMED SPIN DENSITY           0.00000000
 TOTAL ATOMIC SPINS  :
   0.0000000   0.0000000   0.0000000   0.0000000   0.0000000   0.0000000
   0.0000000   0.0000000   0.0000000   0.0000000
 TTTTTTTTTTTTTTTTTTTTTTTTTTTTTT MOQGAD      TELAPSE       87.59 TCPU       87.62
 TTTTTTTTTTTTTTTTTTTTTTTTTTTTTT SHELLX2     TELAPSE       94.85 TCPU       94.88
 TTTTTTTTTTTTTTTTTTTTTTTTTTTTTT MONMO3      TELAPSE       94.98 TCPU       95.01
 CYC  12 ETOT(AU) -4.084451100142E+03 DETOT  1.53E+01 tst  7.78E-04 PX  1.17E-01
 TTTTTTTTTTTTTTTTTTTTTTTTTTTTTT FDIK        TELAPSE       95.02 TCPU       95.05

    ALPHA      ELECTRONS
 INSULATING STATE - LEVEL SHIFTER    0.60 au
 TOP OF VALENCE BANDS -    BAND     71; K    1; EIG -1.0000000E+00 AU
 BOTTOM OF VIRTUAL BANDS - BAND     72; K    1; EIG  1.0000000E+00 AU

    BETA       ELECTRONS
 INSULATING STATE - LEVEL SHIFTER    0.60 au
 TOP OF VALENCE BANDS -    BAND     71; K    1; EIG -1.0000000E+00 AU
 BOTTOM OF VIRTUAL BANDS - BAND     72; K    1; EIG  1.0000000E+00 AU
 TTTTTTTTTTTTTTTTTTTTTTTTTTTTTT PDIG        TELAPSE       95.03 TCPU       95.06
 CHARGE NORMALIZATION FACTOR   1.00220556
 TOTAL ATOMIC CHARGES:
  23.2569450  23.2569393   9.8986331   9.8986331   9.8986331   9.8986331
   9.8986331   9.8986331  18.0471587  18.0471587
 SUMMED SPIN DENSITY           0.00000000
 TOTAL ATOMIC SPINS  :
   0.0000000   0.0000000   0.0000000   0.0000000   0.0000000   0.0000000
   0.0000000   0.0000000   0.0000000   0.0000000
 TTTTTTTTTTTTTTTTTTTTTTTTTTTTTT MOQGAD      TELAPSE       95.07 TCPU       95.10
 TTTTTTTTTTTTTTTTTTTTTTTTTTTTTT SHELLX2     TELAPSE      102.16 TCPU      102.19
 TTTTTTTTTTTTTTTTTTTTTTTTTTTTTT MONMO3      TELAPSE      102.29 TCPU      102.32
 CYC  13 ETOT(AU) -4.099711492518E+03 DETOT -1.53E+01 tst  3.66E-04 PX  1.17E-01
 TTTTTTTTTTTTTTTTTTTTTTTTTTTTTT FDIK        TELAPSE      102.32 TCPU      102.35

    ALPHA      ELECTRONS
 INSULATING STATE - LEVEL SHIFTER    0.60 au
 TOP OF VALENCE BANDS -    BAND     71; K    1; EIG -1.0000000E+00 AU
 BOTTOM OF VIRTUAL BANDS - BAND     72; K    1; EIG  1.0000000E+00 AU

    BETA       ELECTRONS
 INSULATING STATE - LEVEL SHIFTER    0.60 au
 TOP OF VALENCE BANDS -    BAND     71; K    1; EIG -1.0000000E+00 AU
 BOTTOM OF VIRTUAL BANDS - BAND     72; K    1; EIG  1.0000000E+00 AU
 TTTTTTTTTTTTTTTTTTTTTTTTTTTTTT PDIG        TELAPSE      102.34 TCPU      102.37
 CHARGE NORMALIZATION FACTOR   0.99605436
 TOTAL ATOMIC CHARGES:
  23.5442995  23.5442926   9.8405445   9.8405445   9.8405445   9.8405445
   9.8405445   9.8405445  17.9340703  17.9340703
 SUMMED SPIN DENSITY           0.00000000
 TOTAL ATOMIC SPINS  :
   0.0000000   0.0000000   0.0000000   0.0000000   0.0000000   0.0000000
   0.0000000   0.0000000   0.0000000   0.0000000
 TTTTTTTTTTTTTTTTTTTTTTTTTTTTTT MOQGAD      TELAPSE      102.37 TCPU      102.41
 TTTTTTTTTTTTTTTTTTTTTTTTTTTTTT SHELLX2     TELAPSE      109.53 TCPU      109.57
 TTTTTTTTTTTTTTTTTTTTTTTTTTTTTT MONMO3      TELAPSE      109.67 TCPU      109.70
 CYC  14 ETOT(AU) -4.084451129205E+03 DETOT  1.53E+01 tst  7.74E-04 PX  1.17E-01
 TTTTTTTTTTTTTTTTTTTTTTTTTTTTTT FDIK        TELAPSE      109.70 TCPU      109.74

    ALPHA      ELECTRONS
 INSULATING STATE - LEVEL SHIFTER    0.60 au
 TOP OF VALENCE BANDS -    BAND     71; K    1; EIG -1.0000000E+00 AU
 BOTTOM OF VIRTUAL BANDS - BAND     72; K    1; EIG  1.0000000E+00 AU

    BETA       ELECTRONS
 INSULATING STATE - LEVEL SHIFTER    0.60 au
 TOP OF VALENCE BANDS -    BAND     71; K    1; EIG -1.0000000E+00 AU
 BOTTOM OF VIRTUAL BANDS - BAND     72; K    1; EIG  1.0000000E+00 AU
 TTTTTTTTTTTTTTTTTTTTTTTTTTTTTT PDIG        TELAPSE      109.72 TCPU      109.75
 CHARGE NORMALIZATION FACTOR   1.00220556
 TOTAL ATOMIC CHARGES:
  23.2569740  23.2569822   9.8986262   9.8986262   9.8986262   9.8986262
   9.8986262   9.8986262  18.0471434  18.0471434
 SUMMED SPIN DENSITY           0.00000000
 TOTAL ATOMIC SPINS  :
   0.0000000   0.0000000   0.0000000   0.0000000   0.0000000   0.0000000
   0.0000000   0.0000000   0.0000000   0.0000000
 TTTTTTTTTTTTTTTTTTTTTTTTTTTTTT MOQGAD      TELAPSE      109.75 TCPU      109.79
 TTTTTTTTTTTTTTTTTTTTTTTTTTTTTT SHELLX2     TELAPSE      116.88 TCPU      116.92
 TTTTTTTTTTTTTTTTTTTTTTTTTTTTTT MONMO3      TELAPSE      117.01 TCPU      117.05
 CYC  15 ETOT(AU) -4.099711501449E+03 DETOT -1.53E+01 tst  3.63E-04 PX  1.17E-01
 TTTTTTTTTTTTTTTTTTTTTTTTTTTTTT FDIK        TELAPSE      117.05 TCPU      117.09

    ALPHA      ELECTRONS
 INSULATING STATE - LEVEL SHIFTER    0.60 au
 TOP OF VALENCE BANDS -    BAND     71; K    1; EIG -1.0000000E+00 AU
 BOTTOM OF VIRTUAL BANDS - BAND     72; K    1; EIG  1.0000000E+00 AU

    BETA       ELECTRONS
 INSULATING STATE - LEVEL SHIFTER    0.60 au
 TOP OF VALENCE BANDS -    BAND     71; K    1; EIG -1.0000000E+00 AU
 BOTTOM OF VIRTUAL BANDS - BAND     72; K    1; EIG  1.0000000E+00 AU
 TTTTTTTTTTTTTTTTTTTTTTTTTTTTTT PDIG        TELAPSE      117.07 TCPU      117.11
 CHARGE NORMALIZATION FACTOR   0.99605436
 TOTAL ATOMIC CHARGES:
  23.5442920  23.5442994   9.8405448   9.8405448   9.8405448   9.8405448
   9.8405448   9.8405448  17.9340698  17.9340698
 SUMMED SPIN DENSITY           0.00000000
 TOTAL ATOMIC SPINS  :
   0.0000000   0.0000000   0.0000000   0.0000000   0.0000000   0.0000000
   0.0000000   0.0000000   0.0000000   0.0000000
 TTTTTTTTTTTTTTTTTTTTTTTTTTTTTT MOQGAD      TELAPSE      117.10 TCPU      117.14
 TTTTTTTTTTTTTTTTTTTTTTTTTTTTTT SHELLX2     TELAPSE      124.11 TCPU      124.15
 TTTTTTTTTTTTTTTTTTTTTTTTTTTTTT MONMO3      TELAPSE      124.24 TCPU      124.28
 CYC  16 ETOT(AU) -4.084451138736E+03 DETOT  1.53E+01 tst  7.71E-04 PX  1.17E-01
 TTTTTTTTTTTTTTTTTTTTTTTTTTTTTT FDIK        TELAPSE      124.27 TCPU      124.32

    ALPHA      ELECTRONS
 INSULATING STATE - LEVEL SHIFTER    0.60 au
 TOP OF VALENCE BANDS -    BAND     71; K    1; EIG -1.0000000E+00 AU
 BOTTOM OF VIRTUAL BANDS - BAND     72; K    1; EIG  1.0000000E+00 AU

    BETA       ELECTRONS
 INSULATING STATE - LEVEL SHIFTER    0.60 au
 TOP OF VALENCE BANDS -    BAND     71; K    1; EIG -1.0000000E+00 AU
 BOTTOM OF VIRTUAL BANDS - BAND     72; K    1; EIG  1.0000000E+00 AU
 TTTTTTTTTTTTTTTTTTTTTTTTTTTTTT PDIG        TELAPSE      124.29 TCPU      124.33
 CHARGE NORMALIZATION FACTOR   1.00220556
 TOTAL ATOMIC CHARGES:
  23.2570829  23.2570827   9.8985947   9.8985947   9.8985947   9.8985947
   9.8985947   9.8985947  18.0471331  18.0471331
 SUMMED SPIN DENSITY           0.00000000
 TOTAL ATOMIC SPINS  :
   0.0000000   0.0000000   0.0000000   0.0000000   0.0000000   0.0000000
   0.0000000   0.0000000   0.0000000   0.0000000
 TTTTTTTTTTTTTTTTTTTTTTTTTTTTTT MOQGAD      TELAPSE      124.32 TCPU      124.37
 TTTTTTTTTTTTTTTTTTTTTTTTTTTTTT SHELLX2     TELAPSE      131.39 TCPU      131.44
 TTTTTTTTTTTTTTTTTTTTTTTTTTTTTT MONMO3      TELAPSE      131.52 TCPU      131.57
 CYC  17 ETOT(AU) -4.099711507739E+03 DETOT -1.53E+01 tst  3.62E-04 PX  1.17E-01
 TTTTTTTTTTTTTTTTTTTTTTTTTTTTTT FDIK        TELAPSE      131.56 TCPU      131.61

    ALPHA      ELECTRONS
 INSULATING STATE - LEVEL SHIFTER    0.60 au
 TOP OF VALENCE BANDS -    BAND     71; K    1; EIG -1.0000000E+00 AU
 BOTTOM OF VIRTUAL BANDS - BAND     72; K    1; EIG  1.0000000E+00 AU

    BETA       ELECTRONS
 INSULATING STATE - LEVEL SHIFTER    0.60 au
 TOP OF VALENCE BANDS -    BAND     71; K    1; EIG -1.0000000E+00 AU
 BOTTOM OF VIRTUAL BANDS - BAND     72; K    1; EIG  1.0000000E+00 AU
 TTTTTTTTTTTTTTTTTTTTTTTTTTTTTT PDIG        TELAPSE      131.58 TCPU      131.63
 CHARGE NORMALIZATION FACTOR   0.99605436
 TOTAL ATOMIC CHARGES:
  23.5443575  23.5443540   9.8405339   9.8405339   9.8405339   9.8405339
   9.8405339   9.8405339  17.9340424  17.9340424
 SUMMED SPIN DENSITY           0.00000000
 TOTAL ATOMIC SPINS  :
   0.0000000   0.0000000   0.0000000   0.0000000   0.0000000   0.0000000
   0.0000000   0.0000000   0.0000000   0.0000000
 TTTTTTTTTTTTTTTTTTTTTTTTTTTTTT MOQGAD      TELAPSE      131.61 TCPU      131.66
 TTTTTTTTTTTTTTTTTTTTTTTTTTTTTT SHELLX2     TELAPSE      138.59 TCPU      138.64
 TTTTTTTTTTTTTTTTTTTTTTTTTTTTTT MONMO3      TELAPSE      138.72 TCPU      138.77
 CYC  18 ETOT(AU) -4.084451141602E+03 DETOT  1.53E+01 tst  7.70E-04 PX  1.17E-01
 TTTTTTTTTTTTTTTTTTTTTTTTTTTTTT FDIK        TELAPSE      138.75 TCPU      138.81

    ALPHA      ELECTRONS
 INSULATING STATE - LEVEL SHIFTER    0.60 au
 TOP OF VALENCE BANDS -    BAND     71; K    1; EIG -1.0000000E+00 AU
 BOTTOM OF VIRTUAL BANDS - BAND     72; K    1; EIG  1.0000000E+00 AU

    BETA       ELECTRONS
 INSULATING STATE - LEVEL SHIFTER    0.60 au
 TOP OF VALENCE BANDS -    BAND     71; K    1; EIG -1.0000000E+00 AU
 BOTTOM OF VIRTUAL BANDS - BAND     72; K    1; EIG  1.0000000E+00 AU
 TTTTTTTTTTTTTTTTTTTTTTTTTTTTTT PDIG        TELAPSE      138.77 TCPU      138.82
 CHARGE NORMALIZATION FACTOR   1.00220556
 TOTAL ATOMIC CHARGES:
  23.2571674  23.2571494   9.8985761   9.8985761   9.8985761   9.8985761
   9.8985761   9.8985761  18.0471132  18.0471132
 SUMMED SPIN DENSITY           0.00000000
 TOTAL ATOMIC SPINS  :
   0.0000000   0.0000000   0.0000000   0.0000000   0.0000000   0.0000000
   0.0000000   0.0000000   0.0000000   0.0000000
 TTTTTTTTTTTTTTTTTTTTTTTTTTTTTT MOQGAD      TELAPSE      138.80 TCPU      138.86
 TTTTTTTTTTTTTTTTTTTTTTTTTTTTTT SHELLX2     TELAPSE      145.79 TCPU      145.85
 TTTTTTTTTTTTTTTTTTTTTTTTTTTTTT MONMO3      TELAPSE      145.92 TCPU      145.98
 CYC  19 ETOT(AU) -4.099711509155E+03 DETOT -1.53E+01 tst  3.61E-04 PX  1.17E-01
 TTTTTTTTTTTTTTTTTTTTTTTTTTTTTT FDIK        TELAPSE      145.96 TCPU      146.02

    ALPHA      ELECTRONS
 INSULATING STATE - LEVEL SHIFTER    0.60 au
 TOP OF VALENCE BANDS -    BAND     71; K    1; EIG -1.0000000E+00 AU
 BOTTOM OF VIRTUAL BANDS - BAND     72; K    1; EIG  1.0000000E+00 AU

    BETA       ELECTRONS
 INSULATING STATE - LEVEL SHIFTER    0.60 au
 TOP OF VALENCE BANDS -    BAND     71; K    1; EIG -1.0000000E+00 AU
 BOTTOM OF VIRTUAL BANDS - BAND     72; K    1; EIG  1.0000000E+00 AU
 TTTTTTTTTTTTTTTTTTTTTTTTTTTTTT PDIG        TELAPSE      145.97 TCPU      146.03
 CHARGE NORMALIZATION FACTOR   0.99605436
 TOTAL ATOMIC CHARGES:
  23.5443778  23.5443612   9.8405172   9.8405172   9.8405172   9.8405172
   9.8405172   9.8405172  17.9340789  17.9340789
 SUMMED SPIN DENSITY           0.00000000
 TOTAL ATOMIC SPINS  :
   0.0000000   0.0000000   0.0000000   0.0000000   0.0000000   0.0000000
   0.0000000   0.0000000   0.0000000   0.0000000
 TTTTTTTTTTTTTTTTTTTTTTTTTTTTTT MOQGAD      TELAPSE      146.01 TCPU      146.07
 TTTTTTTTTTTTTTTTTTTTTTTTTTTTTT SHELLX2     TELAPSE      152.99 TCPU      153.05
 TTTTTTTTTTTTTTTTTTTTTTTTTTTTTT MONMO3      TELAPSE      153.12 TCPU      153.18
 CYC  20 ETOT(AU) -4.084451142510E+03 DETOT  1.53E+01 tst  7.70E-04 PX  1.17E-01
 TTTTTTTTTTTTTTTTTTTTTTTTTTTTTT FDIK        TELAPSE      153.15 TCPU      153.22

    ALPHA      ELECTRONS
 INSULATING STATE - LEVEL SHIFTER    0.60 au
 TOP OF VALENCE BANDS -    BAND     71; K    1; EIG -1.0000000E+00 AU
 BOTTOM OF VIRTUAL BANDS - BAND     72; K    1; EIG  1.0000000E+00 AU

    BETA       ELECTRONS
 INSULATING STATE - LEVEL SHIFTER    0.60 au
 TOP OF VALENCE BANDS -    BAND     71; K    1; EIG -1.0000000E+00 AU
 BOTTOM OF VIRTUAL BANDS - BAND     72; K    1; EIG  1.0000000E+00 AU
 TTTTTTTTTTTTTTTTTTTTTTTTTTTTTT PDIG        TELAPSE      153.17 TCPU      153.23
 CHARGE NORMALIZATION FACTOR   1.00220556
 TOTAL ATOMIC CHARGES:
  23.2572651  23.2572572   9.8985353   9.8985353   9.8985353   9.8985353
   9.8985353   9.8985353  18.0471331  18.0471331
 SUMMED SPIN DENSITY           0.00000000
 TOTAL ATOMIC SPINS  :
   0.0000000   0.0000000   0.0000000   0.0000000   0.0000000   0.0000000
   0.0000000   0.0000000   0.0000000   0.0000000
 TTTTTTTTTTTTTTTTTTTTTTTTTTTTTT MOQGAD      TELAPSE      153.20 TCPU      153.27
 TTTTTTTTTTTTTTTTTTTTTTTTTTTTTT SHELLX2     TELAPSE      160.32 TCPU      160.38
 TTTTTTTTTTTTTTTTTTTTTTTTTTTTTT MONMO3      TELAPSE      160.45 TCPU      160.51
 CYC  21 ETOT(AU) -4.099711507326E+03 DETOT -1.53E+01 tst  3.61E-04 PX  1.17E-01
 TTTTTTTTTTTTTTTTTTTTTTTTTTTTTT FDIK        TELAPSE      160.48 TCPU      160.55

    ALPHA      ELECTRONS
 INSULATING STATE - LEVEL SHIFTER    0.60 au
 TOP OF VALENCE BANDS -    BAND     71; K    1; EIG -1.0000000E+00 AU
 BOTTOM OF VIRTUAL BANDS - BAND     72; K    1; EIG  1.0000000E+00 AU

    BETA       ELECTRONS
 INSULATING STATE - LEVEL SHIFTER    0.60 au
 TOP OF VALENCE BANDS -    BAND     71; K    1; EIG -1.0000000E+00 AU
 BOTTOM OF VIRTUAL BANDS - BAND     72; K    1; EIG  1.0000000E+00 AU
 TTTTTTTTTTTTTTTTTTTTTTTTTTTTTT PDIG        TELAPSE      160.50 TCPU      160.57
 CHARGE NORMALIZATION FACTOR   0.99605436
 TOTAL ATOMIC CHARGES:
  23.5444562  23.5444515   9.8404936   9.8404936   9.8404936   9.8404936
   9.8404936   9.8404936  17.9340652  17.9340652
 SUMMED SPIN DENSITY           0.00000000
 TOTAL ATOMIC SPINS  :
   0.0000000   0.0000000   0.0000000   0.0000000   0.0000000   0.0000000
   0.0000000   0.0000000   0.0000000   0.0000000
 TTTTTTTTTTTTTTTTTTTTTTTTTTTTTT MOQGAD      TELAPSE      160.53 TCPU      160.60
 TTTTTTTTTTTTTTTTTTTTTTTTTTTTTT SHELLX2     TELAPSE      167.55 TCPU      167.62
 TTTTTTTTTTTTTTTTTTTTTTTTTTTTTT MONMO3      TELAPSE      167.68 TCPU      167.75
 CYC  22 ETOT(AU) -4.084451143266E+03 DETOT  1.53E+01 tst  7.69E-04 PX  1.17E-01
 TTTTTTTTTTTTTTTTTTTTTTTTTTTTTT FDIK        TELAPSE      167.72 TCPU      167.79

    ALPHA      ELECTRONS
 INSULATING STATE - LEVEL SHIFTER    0.60 au
 TOP OF VALENCE BANDS -    BAND     71; K    1; EIG -1.0000000E+00 AU
 BOTTOM OF VIRTUAL BANDS - BAND     72; K    1; EIG  1.0000000E+00 AU

    BETA       ELECTRONS
 INSULATING STATE - LEVEL SHIFTER    0.60 au
 TOP OF VALENCE BANDS -    BAND     71; K    1; EIG -1.0000000E+00 AU
 BOTTOM OF VIRTUAL BANDS - BAND     72; K    1; EIG  1.0000000E+00 AU
 TTTTTTTTTTTTTTTTTTTTTTTTTTTTTT PDIG        TELAPSE      167.73 TCPU      167.80
 CHARGE NORMALIZATION FACTOR   1.00220556
 TOTAL ATOMIC CHARGES:
  23.2572486  23.2572550   9.8985380   9.8985380   9.8985380   9.8985380
   9.8985380   9.8985380  18.0471344  18.0471344
 SUMMED SPIN DENSITY           0.00000000
 TOTAL ATOMIC SPINS  :
   0.0000000   0.0000000   0.0000000   0.0000000   0.0000000   0.0000000
   0.0000000   0.0000000   0.0000000   0.0000000
 TTTTTTTTTTTTTTTTTTTTTTTTTTTTTT MOQGAD      TELAPSE      167.77 TCPU      167.84
 TTTTTTTTTTTTTTTTTTTTTTTTTTTTTT SHELLX2     TELAPSE      174.81 TCPU      174.88
 TTTTTTTTTTTTTTTTTTTTTTTTTTTTTT MONMO3      TELAPSE      174.94 TCPU      175.01
 CYC  23 ETOT(AU) -4.099711510921E+03 DETOT -1.53E+01 tst  3.61E-04 PX  1.17E-01
 TTTTTTTTTTTTTTTTTTTTTTTTTTTTTT FDIK        TELAPSE      174.97 TCPU      175.05

    ALPHA      ELECTRONS
 INSULATING STATE - LEVEL SHIFTER    0.60 au
 TOP OF VALENCE BANDS -    BAND     71; K    1; EIG -1.0000000E+00 AU
 BOTTOM OF VIRTUAL BANDS - BAND     72; K    1; EIG  1.0000000E+00 AU

    BETA       ELECTRONS
 INSULATING STATE - LEVEL SHIFTER    0.60 au
 TOP OF VALENCE BANDS -    BAND     71; K    1; EIG -1.0000000E+00 AU
 BOTTOM OF VIRTUAL BANDS - BAND     72; K    1; EIG  1.0000000E+00 AU
 TTTTTTTTTTTTTTTTTTTTTTTTTTTTTT PDIG        TELAPSE      174.99 TCPU      175.06
 CHARGE NORMALIZATION FACTOR   0.99605436
 TOTAL ATOMIC CHARGES:
  23.5444632  23.5444679   9.8404932   9.8404932   9.8404932   9.8404932
   9.8404932   9.8404932  17.9340550  17.9340550
 SUMMED SPIN DENSITY           0.00000000
 TOTAL ATOMIC SPINS  :
   0.0000000   0.0000000   0.0000000   0.0000000   0.0000000   0.0000000
   0.0000000   0.0000000   0.0000000   0.0000000
 TTTTTTTTTTTTTTTTTTTTTTTTTTTTTT MOQGAD      TELAPSE      175.03 TCPU      175.10
 TTTTTTTTTTTTTTTTTTTTTTTTTTTTTT SHELLX2     TELAPSE      182.05 TCPU      182.13
 TTTTTTTTTTTTTTTTTTTTTTTTTTTTTT MONMO3      TELAPSE      182.18 TCPU      182.26
 CYC  24 ETOT(AU) -4.084451143379E+03 DETOT  1.53E+01 tst  7.69E-04 PX  1.17E-01
 TTTTTTTTTTTTTTTTTTTTTTTTTTTTTT FDIK        TELAPSE      182.22 TCPU      182.30

    ALPHA      ELECTRONS
 INSULATING STATE - LEVEL SHIFTER    0.60 au
 TOP OF VALENCE BANDS -    BAND     71; K    1; EIG -1.0000000E+00 AU
 BOTTOM OF VIRTUAL BANDS - BAND     72; K    1; EIG  1.0000000E+00 AU

    BETA       ELECTRONS
 INSULATING STATE - LEVEL SHIFTER    0.60 au
 TOP OF VALENCE BANDS -    BAND     71; K    1; EIG -1.0000000E+00 AU
 BOTTOM OF VIRTUAL BANDS - BAND     72; K    1; EIG  1.0000000E+00 AU
 TTTTTTTTTTTTTTTTTTTTTTTTTTTTTT PDIG        TELAPSE      182.23 TCPU      182.31
 CHARGE NORMALIZATION FACTOR   1.00220556
 TOTAL ATOMIC CHARGES:
  23.2573209  23.2573174   9.8985205   9.8985205   9.8985205   9.8985205
   9.8985205   9.8985205  18.0471194  18.0471194
 SUMMED SPIN DENSITY           0.00000000
 TOTAL ATOMIC SPINS  :
   0.0000000   0.0000000   0.0000000   0.0000000   0.0000000   0.0000000
   0.0000000   0.0000000   0.0000000   0.0000000
 TTTTTTTTTTTTTTTTTTTTTTTTTTTTTT MOQGAD      TELAPSE      182.27 TCPU      182.35
 TTTTTTTTTTTTTTTTTTTTTTTTTTTTTT SHELLX2     TELAPSE      189.32 TCPU      189.40
 TTTTTTTTTTTTTTTTTTTTTTTTTTTTTT MONMO3      TELAPSE      189.45 TCPU      189.53
 CYC  25 ETOT(AU) -4.099711510774E+03 DETOT -1.53E+01 tst  3.61E-04 PX  1.17E-01
 TTTTTTTTTTTTTTTTTTTTTTTTTTTTTT FDIK        TELAPSE      189.49 TCPU      189.57

    ALPHA      ELECTRONS
 INSULATING STATE - LEVEL SHIFTER    0.60 au
 TOP OF VALENCE BANDS -    BAND     71; K    1; EIG -1.0000000E+00 AU
 BOTTOM OF VIRTUAL BANDS - BAND     72; K    1; EIG  1.0000000E+00 AU

    BETA       ELECTRONS
 INSULATING STATE - LEVEL SHIFTER    0.60 au
 TOP OF VALENCE BANDS -    BAND     71; K    1; EIG -1.0000000E+00 AU
 BOTTOM OF VIRTUAL BANDS - BAND     72; K    1; EIG  1.0000000E+00 AU
 TTTTTTTTTTTTTTTTTTTTTTTTTTTTTT PDIG        TELAPSE      189.50 TCPU      189.58
 CHARGE NORMALIZATION FACTOR   0.99605436
 TOTAL ATOMIC CHARGES:
  23.5444512  23.5444498   9.8404932   9.8404932   9.8404932   9.8404932
   9.8404932   9.8404932  17.9340698  17.9340698
 SUMMED SPIN DENSITY           0.00000000
 TOTAL ATOMIC SPINS  :
   0.0000000   0.0000000   0.0000000   0.0000000   0.0000000   0.0000000
   0.0000000   0.0000000   0.0000000   0.0000000
 TTTTTTTTTTTTTTTTTTTTTTTTTTTTTT MOQGAD      TELAPSE      189.53 TCPU      189.62
 TTTTTTTTTTTTTTTTTTTTTTTTTTTTTT SHELLX2     TELAPSE      196.60 TCPU      196.69
 TTTTTTTTTTTTTTTTTTTTTTTTTTTTTT MONMO3      TELAPSE      196.73 TCPU      196.82
 CYC  26 ETOT(AU) -4.084451145445E+03 DETOT  1.53E+01 tst  7.69E-04 PX  1.17E-01
 TTTTTTTTTTTTTTTTTTTTTTTTTTTTTT FDIK        TELAPSE      196.77 TCPU      196.85

    ALPHA      ELECTRONS
 INSULATING STATE - LEVEL SHIFTER    0.60 au
 TOP OF VALENCE BANDS -    BAND     71; K    1; EIG -1.0000000E+00 AU
 BOTTOM OF VIRTUAL BANDS - BAND     72; K    1; EIG  1.0000000E+00 AU

    BETA       ELECTRONS
 INSULATING STATE - LEVEL SHIFTER    0.60 au
 TOP OF VALENCE BANDS -    BAND     71; K    1; EIG -1.0000000E+00 AU
 BOTTOM OF VIRTUAL BANDS - BAND     72; K    1; EIG  1.0000000E+00 AU
 TTTTTTTTTTTTTTTTTTTTTTTTTTTTTT PDIG        TELAPSE      196.78 TCPU      196.87
 CHARGE NORMALIZATION FACTOR   1.00220556
 TOTAL ATOMIC CHARGES:
  23.2572850  23.2572775   9.8985274   9.8985274   9.8985274   9.8985274
   9.8985274   9.8985274  18.0471366  18.0471366
 SUMMED SPIN DENSITY           0.00000000
 TOTAL ATOMIC SPINS  :
   0.0000000   0.0000000   0.0000000   0.0000000   0.0000000   0.0000000
   0.0000000   0.0000000   0.0000000   0.0000000
 TTTTTTTTTTTTTTTTTTTTTTTTTTTTTT MOQGAD      TELAPSE      196.82 TCPU      196.90
 TTTTTTTTTTTTTTTTTTTTTTTTTTTTTT SHELLX2     TELAPSE      203.89 TCPU      203.98
 TTTTTTTTTTTTTTTTTTTTTTTTTTTTTT MONMO3      TELAPSE      204.02 TCPU      204.11
 CYC  27 ETOT(AU) -4.099711511004E+03 DETOT -1.53E+01 tst  3.61E-04 PX  1.17E-01
 TTTTTTTTTTTTTTTTTTTTTTTTTTTTTT FDIK        TELAPSE      204.05 TCPU      204.14

    ALPHA      ELECTRONS
 INSULATING STATE - LEVEL SHIFTER    0.60 au
 TOP OF VALENCE BANDS -    BAND     71; K    1; EIG -1.0000000E+00 AU
 BOTTOM OF VIRTUAL BANDS - BAND     72; K    1; EIG  1.0000000E+00 AU

    BETA       ELECTRONS
 INSULATING STATE - LEVEL SHIFTER    0.60 au
 TOP OF VALENCE BANDS -    BAND     71; K    1; EIG -1.0000000E+00 AU
 BOTTOM OF VIRTUAL BANDS - BAND     72; K    1; EIG  1.0000000E+00 AU
 TTTTTTTTTTTTTTTTTTTTTTTTTTTTTT PDIG        TELAPSE      204.07 TCPU      204.16
 CHARGE NORMALIZATION FACTOR   0.99605436
 TOTAL ATOMIC CHARGES:
  23.5444660  23.5444581   9.8404914   9.8404914   9.8404914   9.8404914
   9.8404914   9.8404914  17.9340639  17.9340639
 SUMMED SPIN DENSITY           0.00000000
 TOTAL ATOMIC SPINS  :
   0.0000000   0.0000000   0.0000000   0.0000000   0.0000000   0.0000000
   0.0000000   0.0000000   0.0000000   0.0000000
 TTTTTTTTTTTTTTTTTTTTTTTTTTTTTT MOQGAD      TELAPSE      204.10 TCPU      204.19
 TTTTTTTTTTTTTTTTTTTTTTTTTTTTTT SHELLX2     TELAPSE      211.30 TCPU      211.39
 TTTTTTTTTTTTTTTTTTTTTTTTTTTTTT MONMO3      TELAPSE      211.43 TCPU      211.52
 CYC  28 ETOT(AU) -4.084451143198E+03 DETOT  1.53E+01 tst  7.69E-04 PX  1.17E-01
 TTTTTTTTTTTTTTTTTTTTTTTTTTTTTT FDIK        TELAPSE      211.47 TCPU      211.56

    ALPHA      ELECTRONS
 INSULATING STATE - LEVEL SHIFTER    0.60 au
 TOP OF VALENCE BANDS -    BAND     71; K    1; EIG -1.0000000E+00 AU
 BOTTOM OF VIRTUAL BANDS - BAND     72; K    1; EIG  1.0000000E+00 AU

    BETA       ELECTRONS
 INSULATING STATE - LEVEL SHIFTER    0.60 au
 TOP OF VALENCE BANDS -    BAND     71; K    1; EIG -1.0000000E+00 AU
 BOTTOM OF VIRTUAL BANDS - BAND     72; K    1; EIG  1.0000000E+00 AU
 TTTTTTTTTTTTTTTTTTTTTTTTTTTTTT PDIG        TELAPSE      211.48 TCPU      211.58
 CHARGE NORMALIZATION FACTOR   1.00220556
 TOTAL ATOMIC CHARGES:
  23.2573303  23.2573231   9.8985088   9.8985088   9.8985088   9.8985088
   9.8985088   9.8985088  18.0471468  18.0471468
 SUMMED SPIN DENSITY           0.00000000
 TOTAL ATOMIC SPINS  :
   0.0000000   0.0000000   0.0000000   0.0000000   0.0000000   0.0000000
   0.0000000   0.0000000   0.0000000   0.0000000
 TTTTTTTTTTTTTTTTTTTTTTTTTTTTTT MOQGAD      TELAPSE      211.52 TCPU      211.61
 TTTTTTTTTTTTTTTTTTTTTTTTTTTTTT SHELLX2     TELAPSE      218.73 TCPU      218.83
 TTTTTTTTTTTTTTTTTTTTTTTTTTTTTT MONMO3      TELAPSE      218.86 TCPU      218.96
 CYC  29 ETOT(AU) -4.099711509990E+03 DETOT -1.53E+01 tst  3.61E-04 PX  1.17E-01
 TTTTTTTTTTTTTTTTTTTTTTTTTTTTTT FDIK        TELAPSE      218.89 TCPU      218.99

    ALPHA      ELECTRONS
 INSULATING STATE - LEVEL SHIFTER    0.60 au
 TOP OF VALENCE BANDS -    BAND     71; K    1; EIG -1.0000000E+00 AU
 BOTTOM OF VIRTUAL BANDS - BAND     72; K    1; EIG  1.0000000E+00 AU

    BETA       ELECTRONS
 INSULATING STATE - LEVEL SHIFTER    0.60 au
 TOP OF VALENCE BANDS -    BAND     71; K    1; EIG -1.0000000E+00 AU
 BOTTOM OF VIRTUAL BANDS - BAND     72; K    1; EIG  1.0000000E+00 AU
 TTTTTTTTTTTTTTTTTTTTTTTTTTTTTT PDIG        TELAPSE      218.91 TCPU      219.01
 CHARGE NORMALIZATION FACTOR   0.99605436
 TOTAL ATOMIC CHARGES:
  23.5444922  23.5444803   9.8404802   9.8404802   9.8404802   9.8404802
   9.8404802   9.8404802  17.9340733  17.9340733
 SUMMED SPIN DENSITY           0.00000000
 TOTAL ATOMIC SPINS  :
   0.0000000   0.0000000   0.0000000   0.0000000   0.0000000   0.0000000
   0.0000000   0.0000000   0.0000000   0.0000000
 TTTTTTTTTTTTTTTTTTTTTTTTTTTTTT MOQGAD      TELAPSE      218.94 TCPU      219.04
 TTTTTTTTTTTTTTTTTTTTTTTTTTTTTT SHELLX2     TELAPSE      226.17 TCPU      226.27
 TTTTTTTTTTTTTTTTTTTTTTTTTTTTTT MONMO3      TELAPSE      226.31 TCPU      226.41
 CYC  30 ETOT(AU) -4.084451145129E+03 DETOT  1.53E+01 tst  7.69E-04 PX  1.17E-01
 TTTTTTTTTTTTTTTTTTTTTTTTTTTTTT FDIK        TELAPSE      226.34 TCPU      226.45
 POSSIBLY CONDUCTING STATE - EFERMI(AU) -8.4546922E-01 (RES. CHARGE  6.86E-08;IT. 20)
 TTTTTTTTTTTTTTTTTTTTTTTTTTTTTT PDIG        TELAPSE      226.36 TCPU      226.46
 CHARGE NORMALIZATION FACTOR   1.00000000
 TOTAL ATOMIC CHARGES:
  23.3502633  23.3502430   9.8807769   9.8807769   9.8807769   9.8807769
   9.8807769   9.8807769  18.0074160  18.0074160
 SUMMED SPIN DENSITY           0.00000000
 TOTAL ATOMIC SPINS  :
   0.0000000   0.0000000   0.0000000   0.0000000   0.0000000   0.0000000
   0.0000000   0.0000000   0.0000000   0.0000000
 TTTTTTTTTTTTTTTTTTTTTTTTTTTTTT MOQGAD      TELAPSE      226.40 TCPU      226.50
 TTTTTTTTTTTTTTTTTTTTTTTTTTTTTT SHELLX2     TELAPSE      233.43 TCPU      233.53
 TTTTTTTTTTTTTTTTTTTTTTTTTTTTTT MONMO3      TELAPSE      233.56 TCPU      233.66
 CYC  31 ETOT(AU) -4.094284814706E+03 DETOT -9.83E+00 tst  3.61E-04 PX  7.17E-02
 TTTTTTTTTTTTTTTTTTTTTTTTTTTTTT FDIK        TELAPSE      233.59 TCPU      233.70
 POSSIBLY CONDUCTING STATE - EFERMI(AU) -8.7510440E-01 (RES. CHARGE  1.02E-05;IT. 33)
 TTTTTTTTTTTTTTTTTTTTTTTTTTTTTT PDIG        TELAPSE      233.61 TCPU      233.72
 CHARGE NORMALIZATION FACTOR   1.00000007
 TOTAL ATOMIC CHARGES:
  23.3656996  23.3656946   9.8759446   9.8759446   9.8759446   9.8759446
   9.8759446   9.8759446  18.0064691  18.0064691
 SUMMED SPIN DENSITY           0.00000000
 TOTAL ATOMIC SPINS  :
   0.0000000   0.0000000   0.0000000   0.0000000   0.0000000   0.0000000
   0.0000000   0.0000000   0.0000000   0.0000000
 TTTTTTTTTTTTTTTTTTTTTTTTTTTTTT MOQGAD      TELAPSE      233.65 TCPU      233.75
 TTTTTTTTTTTTTTTTTTTTTTTTTTTTTT SHELLX2     TELAPSE      240.63 TCPU      240.74
 TTTTTTTTTTTTTTTTTTTTTTTTTTTTTT MONMO3      TELAPSE      240.76 TCPU      240.87
 CYC  32 ETOT(AU) -4.094285446883E+03 DETOT -6.32E-04 tst  1.16E-04 PX  1.65E-02
 TTTTTTTTTTTTTTTTTTTTTTTTTTTTTT FDIK        TELAPSE      240.79 TCPU      240.90
 POSSIBLY CONDUCTING STATE - EFERMI(AU) -8.7547073E-01 (RES. CHARGE  1.32E-05;IT. 34)
 TTTTTTTTTTTTTTTTTTTTTTTTTTTTTT PDIG        TELAPSE      240.81 TCPU      240.92
 CHARGE NORMALIZATION FACTOR   0.99999991
 TOTAL ATOMIC CHARGES:
  23.3714133  23.3714115   9.8742605   9.8742605   9.8742605   9.8742605
   9.8742605   9.8742605  18.0058061  18.0058061
 SUMMED SPIN DENSITY           0.00000000
 TOTAL ATOMIC SPINS  :
   0.0000000   0.0000000   0.0000000   0.0000000   0.0000000   0.0000000
   0.0000000   0.0000000   0.0000000   0.0000000
 TTTTTTTTTTTTTTTTTTTTTTTTTTTTTT MOQGAD      TELAPSE      240.85 TCPU      240.96
 TTTTTTTTTTTTTTTTTTTTTTTTTTTTTT SHELLX2     TELAPSE      247.83 TCPU      247.95
 TTTTTTTTTTTTTTTTTTTTTTTTTTTTTT MONMO3      TELAPSE      247.96 TCPU      248.07
 CYC  33 ETOT(AU) -4.094285268932E+03 DETOT  1.78E-04 tst  4.18E-05 PX  7.94E-03
 TTTTTTTTTTTTTTTTTTTTTTTTTTTTTT FDIK        TELAPSE      248.00 TCPU      248.11
 POSSIBLY CONDUCTING STATE - EFERMI(AU) -8.7393795E-01 (RES. CHARGE  3.21E-05;IT. 39)
 TTTTTTTTTTTTTTTTTTTTTTTTTTTTTT PDIG        TELAPSE      248.01 TCPU      248.13
 CHARGE NORMALIZATION FACTOR   0.99999977
 TOTAL ATOMIC CHARGES:
  23.3727209  23.3727204   9.8739283   9.8739283   9.8739283   9.8739283
   9.8739283   9.8739283  18.0054946  18.0054946
 SUMMED SPIN DENSITY           0.00000000
 TOTAL ATOMIC SPINS  :
   0.0000000   0.0000000   0.0000000   0.0000000   0.0000000   0.0000000
   0.0000000   0.0000000   0.0000000   0.0000000
 TTTTTTTTTTTTTTTTTTTTTTTTTTTTTT MOQGAD      TELAPSE      248.05 TCPU      248.16
 TTTTTTTTTTTTTTTTTTTTTTTTTTTTTT SHELLX2     TELAPSE      255.03 TCPU      255.15
 TTTTTTTTTTTTTTTTTTTTTTTTTTTTTT MONMO3      TELAPSE      255.16 TCPU      255.28
 CYC  34 ETOT(AU) -4.094284967591E+03 DETOT  3.01E-04 tst  1.26E-05 PX  3.30E-03
 TTTTTTTTTTTTTTTTTTTTTTTTTTTTTT FDIK        TELAPSE      255.19 TCPU      255.31
 POSSIBLY CONDUCTING STATE - EFERMI(AU) -8.7373267E-01 (RES. CHARGE  3.73E-05;IT. 47)
 TTTTTTTTTTTTTTTTTTTTTTTTTTTTTT PDIG        TELAPSE      255.21 TCPU      255.33
 CHARGE NORMALIZATION FACTOR   0.99999974
 TOTAL ATOMIC CHARGES:
  23.3734202  23.3734201   9.8737401   9.8737401   9.8737401   9.8737401
   9.8737401   9.8737401  18.0053596  18.0053596
 SUMMED SPIN DENSITY           0.00000000
 TOTAL ATOMIC SPINS  :
   0.0000000   0.0000000   0.0000000   0.0000000   0.0000000   0.0000000
   0.0000000   0.0000000   0.0000000   0.0000000
 TTTTTTTTTTTTTTTTTTTTTTTTTTTTTT MOQGAD      TELAPSE      255.25 TCPU      255.36
 TTTTTTTTTTTTTTTTTTTTTTTTTTTTTT SHELLX2     TELAPSE      262.24 TCPU      262.36
 TTTTTTTTTTTTTTTTTTTTTTTTTTTTTT MONMO3      TELAPSE      262.37 TCPU      262.49
 CYC  35 ETOT(AU) -4.094284888460E+03 DETOT  7.91E-05 tst  4.96E-06 PX  2.05E-03
 TTTTTTTTTTTTTTTTTTTTTTTTTTTTTT FDIK        TELAPSE      262.41 TCPU      262.53
 POSSIBLY CONDUCTING STATE - EFERMI(AU) -8.7377006E-01 (RES. CHARGE  1.32E-05;IT. 30)
 TTTTTTTTTTTTTTTTTTTTTTTTTTTTTT PDIG        TELAPSE      262.42 TCPU      262.55
 CHARGE NORMALIZATION FACTOR   0.99999991
 TOTAL ATOMIC CHARGES:
  23.3738265  23.3738265   9.8736245   9.8736245   9.8736245   9.8736245
   9.8736245   9.8736245  18.0053000  18.0053000
 SUMMED SPIN DENSITY           0.00000000
 TOTAL ATOMIC SPINS  :
   0.0000000   0.0000000   0.0000000   0.0000000   0.0000000   0.0000000
   0.0000000   0.0000000   0.0000000   0.0000000
 TTTTTTTTTTTTTTTTTTTTTTTTTTTTTT MOQGAD      TELAPSE      262.46 TCPU      262.58
 TTTTTTTTTTTTTTTTTTTTTTTTTTTTTT SHELLX2     TELAPSE      269.58 TCPU      269.71
 TTTTTTTTTTTTTTTTTTTTTTTTTTTTTT MONMO3      TELAPSE      269.72 TCPU      269.84
 CYC  36 ETOT(AU) -4.094285316472E+03 DETOT -4.28E-04 tst  2.25E-06 PX  1.19E-03
 TTTTTTTTTTTTTTTTTTTTTTTTTTTTTT FDIK        TELAPSE      269.76 TCPU      269.88
 POSSIBLY CONDUCTING STATE - EFERMI(AU) -8.7377927E-01 (RES. CHARGE  9.27E-06;IT. 34)
 TTTTTTTTTTTTTTTTTTTTTTTTTTTTTT PDIG        TELAPSE      269.78 TCPU      269.90
 CHARGE NORMALIZATION FACTOR   0.99999993
 TOTAL ATOMIC CHARGES:
  23.3740362  23.3740361   9.8735649   9.8735649   9.8735649   9.8735649
   9.8735649   9.8735649  18.0052691  18.0052691
 SUMMED SPIN DENSITY           0.00000000
 TOTAL ATOMIC SPINS  :
   0.0000000   0.0000000   0.0000000   0.0000000   0.0000000   0.0000000
[...]
   9.8734881   9.8734881  18.0052348  18.0052348
 SUMMED SPIN DENSITY           0.00000000
 TOTAL ATOMIC SPINS  :
   0.0000000   0.0000000   0.0000000   0.0000000   0.0000000   0.0000000
   0.0000000   0.0000000   0.0000000   0.0000000
 TTTTTTTTTTTTTTTTTTTTTTTTTTTTTT MOQGAD      TELAPSE      356.62 TCPU      356.79
 TTTTTTTTTTTTTTTTTTTTTTTTTTTTTT SHELLX2     TELAPSE      363.59 TCPU      363.77
 TTTTTTTTTTTTTTTTTTTTTTTTTTTTTT MONMO3      TELAPSE      363.72 TCPU      363.90
 CYC  49 ETOT(AU) -4.094285348868E+03 DETOT -4.56E-04 tst  6.19E-11 PX  5.02E-06
 TTTTTTTTTTTTTTTTTTTTTTTTTTTTTT FDIK        TELAPSE      363.76 TCPU      363.94
 POSSIBLY CONDUCTING STATE - EFERMI(AU) -8.7379096E-01 (RES. CHARGE  4.64E-05;IT. 35)
 TTTTTTTTTTTTTTTTTTTTTTTTTTTTTT PDIG        TELAPSE      363.78 TCPU      363.96
 CHARGE NORMALIZATION FACTOR   0.99999967
 TOTAL ATOMIC CHARGES:
  23.3743403  23.3742857   9.8734856   9.8734856   9.8734856   9.8734856
   9.8734856   9.8734856  18.0052303  18.0052303
 SUMMED SPIN DENSITY           0.00000000
 TOTAL ATOMIC SPINS  :
   0.0000000   0.0000000   0.0000000   0.0000000   0.0000000   0.0000000
   0.0000000   0.0000000   0.0000000   0.0000000
 TTTTTTTTTTTTTTTTTTTTTTTTTTTTTT MOQGAD      TELAPSE      363.81 TCPU      363.99
 TTTTTTTTTTTTTTTTTTTTTTTTTTTTTT SHELLX2     TELAPSE      370.79 TCPU      370.97
 +++ ENERGIES IN A.U. +++
 ::: EXT EL-POLE                                  -2.4632374351838E+03
 ::: EXT EL-SPHEROPOLE                             2.3691704423027E+01
 ::: BIELET ZONE E-E                               3.3989574673503E+03
 ::: TOTAL E-E                                     9.5941173658949E+02
 ::: TOTAL E-N + N-E                              -8.4812855116546E+03
 ::: TOTAL N-N                                    -6.6420693306838E+02
 ::: KINETIC ENERGY                                4.0917959640784E+03
 ::: TOTAL   ENERGY                               -4.0942847440550E+03
 ::: VIRIAL COEFFICIENT                            9.9969597417063E-01
 TTTTTTTTTTTTTTTTTTTTTTTTTTTTTT MONMO3      TELAPSE      370.92 TCPU      371.10
 CYC  50 ETOT(AU) -4.094284744055E+03 DETOT  6.05E-04 tst  3.70E-11 PX  5.02E-06

 == SCF ENDED - TOO MANY CYCLES            E(AU) -4.0942847440550E+03 CYCLES  50

 TOTAL ENERGY(HF)(AU)(  50) -4.0942847440550E+03 DE 6.0E-04 tst 3.7E-11 PX 5.0E-06

 NEIGHBORS OF THE NON-EQUIVALENT ATOMS

 N = NUMBER OF NEIGHBORS AT DISTANCE R
    ATOM  N     R/ANG      R/AU   NEIGHBORS (ATOM LABELS AND CELL INDICES)
   1 MN   6     2.0950     3.9590    3 F    0 0 0    4 F    0 0 0    5 F    0 0 0
                                     6 F    0 0 0    7 F    0 0 0    8 F    0 0 0
   1 MN   8     3.6286     6.8571    9 K    0 0 0    9 K   -1 0 0    9 K    0 1 0
                                     9 K    0 0 1   10 K    0 0 0   10 K    1 0 0
                                    10 K    0-1 0   10 K    0 0-1
   1 MN   6     4.1900     7.9180    2 MN   0 0 0    2 MN  -1-1 0    2 MN  -1 0-1
                                     2 MN   0-1 0    2 MN   0 0-1    2 MN  -1-1-1
   1 MN  24     4.6846     8.8525    3 F   -1 0-1    3 F   -1 0 0    3 F    0 1 0
                                     3 F    0 1-1    4 F    1 0 1    4 F    1 0 0
                                     4 F    0-1 0    4 F    0-1 1    5 F    0-1 1
                                     5 F    0 0 1    5 F   -1 0 0    5 F   -1-1 0
                                     6 F    0 1-1    6 F    0 0-1    6 F    1 0 0
                                     6 F    1 1 0    7 F    1 1 0    7 F    0 1 0
                                     7 F    0 0 1    7 F    1 0 1    8 F   -1-1 0
                                     8 F    0-1 0    8 F    0 0-1    8 F   -1 0-1
   1 MN  12     5.9256    11.1977    1 MN  -1-1 0    1 MN   1 1 0    1 MN  -1 0-1
                                     1 MN   1 0 1    1 MN  -1 0 0    1 MN   1 0 0
                                     1 MN   0-1 0    1 MN   0 1 0    1 MN   0-1 1
                                     1 MN   0 1-1    1 MN   0 0-1    1 MN   0 0 1
   1 MN  30     6.2850    11.8769    3 F    1 1 0    3 F   -1-1 0    3 F    0 0 1
                                     3 F    0 0-1    3 F   -1 1-1    4 F   -1-1 0
                                     4 F    1 1 0    4 F    0 0-1    4 F    0 0 1
                                     4 F    1-1 1    5 F   -1 0-1    5 F    1 0 1
                                     5 F    0 1 0    5 F    0-1 0    5 F   -1-1 1
                                     6 F    1 0 1    6 F   -1 0-1    6 F    0-1 0
                                     6 F    0 1 0    6 F    1 1-1    7 F    0-1 1
                                     7 F    0 1-1    7 F   -1 0 0    7 F    1 0 0
                                     7 F    1 1 1    8 F    0 1-1    8 F    0-1 1
                                     8 F    1 0 0    8 F   -1 0 0    8 F   -1-1-1

   2 MN   6     2.0950     3.9590    3 F    0 1 0    4 F    1 0 1    5 F    0 0 1
                                     6 F    1 1 0    7 F    1 1 1    8 F    0 0 0
   2 MN   8     3.6286     6.8571    9 K    0 1 0    9 K    0 0 1    9 K    1 1 1
                                     9 K    0 1 1   10 K    1 1 0   10 K    1 0 1
                                    10 K    0 0 0   10 K    1 0 0
   2 MN   6     4.1900     7.9180    1 MN   0 0 0    1 MN   1 1 0    1 MN   1 0 1
                                     1 MN   0 1 0    1 MN   0 0 1    1 MN   1 1 1
   2 MN  24     4.6846     8.8525    3 F    0 0 0    3 F    1 1 0    3 F    0 0 1
                                     3 F    1 1 1    4 F    0 0 0    4 F    0 0 1
                                     4 F    1 1 0    4 F    1 1 1    5 F    1 0 1
                                     5 F    0 0 0    5 F    1 1 1    5 F    0 1 0
                                     6 F    0 1 0    6 F    0 0 0    6 F    1 1 1
                                     6 F    1 0 1    7 F    1 1 0    7 F    1 0 1
                                     7 F    0 1 0    7 F    0 0 1    8 F    1 1 0
                                     8 F    0 1 0    8 F    1 0 1    8 F    0 0 1
   2 MN  12     5.9256    11.1977    2 MN  -1-1 0    2 MN   1 1 0    2 MN  -1 0-1
                                     2 MN   1 0 1    2 MN  -1 0 0    2 MN   1 0 0
                                     2 MN   0-1 0    2 MN   0 1 0    2 MN   0-1 1
                                     2 MN   0 1-1    2 MN   0 0-1    2 MN   0 0 1
   2 MN  30     6.2850    11.8769    3 F    1 0 1    3 F   -1 0 0    3 F    0 1-1
                                     3 F    1 2 0    3 F    0 1 1    4 F    0 1 0
                                     4 F    1 0 0    4 F    0-1 1    4 F    1 0 2
                                     4 F    2 1 1    5 F    1 1 0    5 F    1 0 2
                                     5 F    0-1 1    5 F   -1 0 0    5 F    0 1 1
                                     6 F    0 0 1    6 F    1 2 0    6 F    0 1-1
                                     6 F    1 0 0    6 F    2 1 1    7 F    0 0 0
                                     7 F    1 2 0    7 F    2 1 1    7 F    1 0 2
                                     7 F    0 1 1    8 F    1 1 1    8 F    1 0 0
                                     8 F    0 1-1    8 F   -1 0 0    8 F    0-1 1

   3 F    2     2.0950     3.9590    1 MN   0 0 0    2 MN   0-1 0
   3 F    8     2.9628     5.5988    5 F    0 0 0    5 F    0-1 1    6 F    0 0 0
                                     6 F    1 0 0    7 F    0 0 0    7 F    1 0 1
                                     8 F    0 0 0    8 F    0-1 0
   3 F    4     2.9628     5.5988    9 K    0 0 0    9 K    0 0 1   10 K    1 0 0
                                    10 K    0-1 0
   3 F    6     4.1900     7.9180    4 F    0 0 0    4 F    1 0 1    4 F    1 0 0
                                     4 F    0-1 0    4 F    0-1 1    4 F    1-1 1
   3 F    8     4.6846     8.8525    1 MN   1 0 1    1 MN   1 0 0    1 MN   0-1 0
                                     1 MN   0-1 1    2 MN   0 0 0    2 MN  -1-1 0
                                     2 MN   0 0-1    2 MN  -1-1-1
   3 F   16     5.1317     9.6975    5 F   -1-1 0    5 F    1 0 1    5 F    0-1 0
                                     5 F    0 0 1    6 F    1 1 0    6 F    0-1 0
                                     6 F    1 0 1    6 F    0 0-1    7 F    0-1 1
                                     7 F    1 1 0    7 F    0 0 1    7 F    1 0 0
                                     8 F    0-1 1    8 F    0 0-1    8 F   -1-1 0
                                     8 F    1 0 0

   9 K   12     2.9628     5.5988    3 F    0 0 0    3 F    0 0-1    4 F    1 0 0
                                     4 F    0-1 0    5 F    0 0 0    5 F    0-1 0
                                     6 F    1 0 0    6 F    0 0-1    7 F    0 0 0
                                     7 F    1 0 0    8 F    0-1 0    8 F    0 0-1
   9 K    8     3.6286     6.8571    1 MN   0 0 0    1 MN   1 0 0    1 MN   0-1 0
                                     1 MN   0 0-1    2 MN   0-1 0    2 MN   0 0-1
                                     2 MN  -1-1-1    2 MN   0-1-1
   9 K    6     4.1900     7.9180   10 K    1 0 0   10 K    0-1 0   10 K    0 0-1
                                    10 K    1 0-1   10 K    1-1 0   10 K    0-1-1
   9 K   24     5.1317     9.6975    3 F   -1 0-1    3 F    1 0 0    3 F    0-1 0
                                     3 F    0 1-1    4 F    1-1 0    4 F    0 0 0
                                     4 F    0 0-1    4 F    1-1 1    5 F    0-1 1
                                     5 F    0 0-1    5 F    1 0 0    5 F   -1-1 0
                                     6 F    1 1-1    6 F    0-1 0    6 F    0 0 0
                                     6 F    1 0-1    7 F    1 1 0    7 F    0-1 0
                                     7 F    0 0-1    7 F    1 0 1    8 F    0-1-1
                                     8 F    0 0 0    8 F    1 0 0    8 F   -1-1-1
   9 K   12     5.9256    11.1977    9 K   -1-1 0    9 K    1 1 0    9 K   -1 0-1
                                     9 K    1 0 1    9 K   -1 0 0    9 K    1 0 0
                                     9 K    0-1 0    9 K    0 1 0    9 K    0-1 1
                                     9 K    0 1-1    9 K    0 0-1    9 K    0 0 1
   9 K   24     6.6250    12.5194    3 F   -1-1 0    3 F    1 1 0    3 F   -1-1-1
                                     3 F    1 1-1    4 F    1 0-1    4 F    1 0 1
                                     4 F    0-1-1    4 F    0-1 1    5 F    1 0 1
                                     5 F   -1 0-1    5 F    1-1 1    5 F   -1-1-1
                                     6 F    1 1 0    6 F    1-1 0    6 F    0 1-1
                                     6 F    0-1-1    7 F    0 1-1    7 F    0-1 1
                                     7 F    1 1-1    7 F    1-1 1    8 F    1-1 0
                                     8 F   -1-1 0    8 F    1 0-1    8 F   -1 0-1

 TTTTTTTTTTTTTTTTTTTTTTTTTTTTTT AFTER FIRST TELAPSE      370.92 TCPU      371.11
 MMMMMMMMMMMMMMMMMMMMMMMMMMMMMMMMMMMMMMMMMMMMMMMMMMMMMMMMMMMMMMMMMMMMMMMMMMMMMMM
     ALPHA+BETA ELECTRONS
 MULLIKEN POPULATION ANALYSIS - NO. OF ELECTRONS  142.000000

  ATOM    Z CHARGE  A.O. POPULATION

   1 MN  25 23.374  2.000  1.899  2.060  2.060  2.060  0.368  0.612  0.612
                    0.612  1.303  1.005  1.005  1.005  0.444  0.332  0.332
                    0.332  0.033  1.428  1.428  0.033  1.428  0.082  0.274
                    0.274  0.082  0.274
   2 MN  25 23.374  2.000  1.899  2.060  2.060  2.060  0.368  0.612  0.612
                    0.612  1.303  1.005  1.005  1.005  0.444  0.332  0.332
                    0.332  0.033  1.428  1.428  0.033  1.428  0.082  0.274
                    0.274  0.082  0.274
   3 F    9  9.873  1.999  0.815  0.979  1.048  1.048  0.996  0.687  0.671
                    0.671  0.179  0.263  0.259  0.259
   4 F    9  9.873  1.999  0.815  0.979  1.048  1.048  0.996  0.687  0.671
                    0.671  0.179  0.263  0.259  0.259
   5 F    9  9.873  1.999  0.815  1.048  0.979  1.048  0.996  0.671  0.687
                    0.671  0.179  0.259  0.263  0.259
   6 F    9  9.873  1.999  0.815  1.048  0.979  1.048  0.996  0.671  0.687
                    0.671  0.179  0.259  0.263  0.259
   7 F    9  9.873  1.999  0.815  1.048  1.048  0.979  0.996  0.671  0.671
                    0.687  0.179  0.259  0.259  0.263
   8 F    9  9.873  1.999  0.815  1.048  1.048  0.979  0.996  0.671  0.671
                    0.687  0.179  0.259  0.259  0.263
   9 K   19 18.005  2.000  1.986  2.031  2.031  2.031  0.797  1.053  1.053
                    1.053  0.937  0.564  0.564  0.564  0.286  0.351  0.351
                    0.351
  10 K   19 18.005  2.000  1.986  2.031  2.031  2.031  0.797  1.053  1.053
                    1.053  0.937  0.564  0.564  0.564  0.286  0.351  0.351
                    0.351

  ATOM    Z CHARGE  SHELL POPULATION

   1 MN  25 23.374  2.000  8.079  2.206  4.318  1.438  4.349  0.985
   2 MN  25 23.374  2.000  8.079  2.206  4.318  1.438  4.349  0.985
   3 F    9  9.873  1.999  3.891  3.025  0.958
   4 F    9  9.873  1.999  3.891  3.025  0.958
   5 F    9  9.873  1.999  3.891  3.025  0.958
   6 F    9  9.873  1.999  3.891  3.025  0.958
   7 F    9  9.873  1.999  3.891  3.025  0.958
   8 F    9  9.873  1.999  3.891  3.025  0.958
   9 K   19 18.005  2.000  8.078  3.958  2.630  1.340
  10 K   19 18.005  2.000  8.078  3.958  2.630  1.340

 OVERLAP POPULATION CONDENSED TO ATOMS FOR FIRST   6 NEIGHBORS

 ATOM A   1 MN   ATOM B     CELL      R(AB)/AU R(AB)/ANG    OVPOP(AB)
                  3 F    (  0  0  0)     3.959     2.095     0.018
                  9 K    (  0  0  0)     6.857     3.629     0.000
                  2 MN   (  0  0  0)     7.918     4.190     0.000
                  3 F    ( -1  0 -1)     8.853     4.685     0.000
                  1 MN   ( -1 -1  0)    11.198     5.926     0.000
                  3 F    (  1  1  0)    11.877     6.285     0.000

 ATOM A   2 MN   ATOM B     CELL      R(AB)/AU R(AB)/ANG    OVPOP(AB)
                  3 F    (  0  1  0)     3.959     2.095     0.018
                  9 K    (  0  1  0)     6.857     3.629     0.000
                  1 MN   (  0  0  0)     7.918     4.190     0.000
                  3 F    (  0  0  0)     8.853     4.685     0.000
                  2 MN   ( -1 -1  0)    11.198     5.926     0.000
                  3 F    (  1  0  1)    11.877     6.285     0.000

 ATOM A   3 F    ATOM B     CELL      R(AB)/AU R(AB)/ANG    OVPOP(AB)
                  1 MN   (  0  0  0)     3.959     2.095     0.018
                  5 F    (  0  0  0)     5.599     2.963     0.003
                  9 K    (  0  0  0)     5.599     2.963    -0.001
                  4 F    (  0  0  0)     7.918     4.190    -0.001
                  1 MN   (  1  0  1)     8.853     4.685     0.000
                  5 F    ( -1 -1  0)     9.697     5.132     0.000

 ATOM A   9 K    ATOM B     CELL      R(AB)/AU R(AB)/ANG    OVPOP(AB)
                  3 F    (  0  0  0)     5.599     2.963    -0.001
                  1 MN   (  0  0  0)     6.857     3.629     0.000
                 10 K    (  1  0  0)     7.918     4.190     0.000
                  3 F    ( -1  0 -1)     9.697     5.132     0.000
                  9 K    ( -1 -1  0)    11.198     5.926     0.000
                  3 F    ( -1 -1  0)    12.519     6.625     0.000
 TTTTTTTTTTTTTTTTTTTTTTTTTTTTTT AFTER FIRST TELAPSE      370.92 TCPU      371.11
 MMMMMMMMMMMMMMMMMMMMMMMMMMMMMMMMMMMMMMMMMMMMMMMMMMMMMMMMMMMMMMMMMMMMMMMMMMMMMMM
     ALPHA-BETA ELECTRONS
 MULLIKEN POPULATION ANALYSIS - NO. OF ELECTRONS    0.000000

  ATOM    Z CHARGE  A.O. POPULATION

   1 MN  25  0.000  0.000  0.000  0.000  0.000  0.000  0.000  0.000  0.000
                    0.000  0.000  0.000  0.000  0.000  0.000  0.000  0.000
                    0.000  0.000  0.000  0.000  0.000  0.000  0.000  0.000
                    0.000  0.000  0.000
   2 MN  25  0.000  0.000  0.000  0.000  0.000  0.000  0.000  0.000  0.000
                    0.000  0.000  0.000  0.000  0.000  0.000  0.000  0.000
                    0.000  0.000  0.000  0.000  0.000  0.000  0.000  0.000
                    0.000  0.000  0.000
   3 F    9  0.000  0.000  0.000  0.000  0.000  0.000  0.000  0.000  0.000
                    0.000  0.000  0.000  0.000  0.000
   4 F    9  0.000  0.000  0.000  0.000  0.000  0.000  0.000  0.000  0.000
                    0.000  0.000  0.000  0.000  0.000
   5 F    9  0.000  0.000  0.000  0.000  0.000  0.000  0.000  0.000  0.000
                    0.000  0.000  0.000  0.000  0.000
   6 F    9  0.000  0.000  0.000  0.000  0.000  0.000  0.000  0.000  0.000
                    0.000  0.000  0.000  0.000  0.000
   7 F    9  0.000  0.000  0.000  0.000  0.000  0.000  0.000  0.000  0.000
                    0.000  0.000  0.000  0.000  0.000
   8 F    9  0.000  0.000  0.000  0.000  0.000  0.000  0.000  0.000  0.000
                    0.000  0.000  0.000  0.000  0.000
   9 K   19  0.000  0.000  0.000  0.000  0.000  0.000  0.000  0.000  0.000
                    0.000  0.000  0.000  0.000  0.000  0.000  0.000  0.000
                    0.000
  10 K   19  0.000  0.000  0.000  0.000  0.000  0.000  0.000  0.000  0.000
                    0.000  0.000  0.000  0.000  0.000  0.000  0.000  0.000
                    0.000

  ATOM    Z CHARGE  SHELL POPULATION

   1 MN  25  0.000  0.000  0.000  0.000  0.000  0.000  0.000  0.000
   2 MN  25  0.000  0.000  0.000  0.000  0.000  0.000  0.000  0.000
   3 F    9  0.000  0.000  0.000  0.000  0.000
   4 F    9  0.000  0.000  0.000  0.000  0.000
   5 F    9  0.000  0.000  0.000  0.000  0.000
   6 F    9  0.000  0.000  0.000  0.000  0.000
   7 F    9  0.000  0.000  0.000  0.000  0.000
   8 F    9  0.000  0.000  0.000  0.000  0.000
   9 K   19  0.000  0.000  0.000  0.000  0.000  0.000
  10 K   19  0.000  0.000  0.000  0.000  0.000  0.000

 OVERLAP POPULATION CONDENSED TO ATOMS FOR FIRST   6 NEIGHBORS

 ATOM A   1 MN   ATOM B     CELL      R(AB)/AU R(AB)/ANG    OVPOP(AB)
                  3 F    (  0  0  0)     3.959     2.095     0.000
                  9 K    (  0  0  0)     6.857     3.629     0.000
                  2 MN   (  0  0  0)     7.918     4.190     0.000
                  3 F    ( -1  0 -1)     8.853     4.685     0.000
                  1 MN   ( -1 -1  0)    11.198     5.926     0.000
                  3 F    (  1  1  0)    11.877     6.285     0.000

 ATOM A   2 MN   ATOM B     CELL      R(AB)/AU R(AB)/ANG    OVPOP(AB)
                  3 F    (  0  1  0)     3.959     2.095     0.000
                  9 K    (  0  1  0)     6.857     3.629     0.000
                  1 MN   (  0  0  0)     7.918     4.190     0.000
                  3 F    (  0  0  0)     8.853     4.685     0.000
                  2 MN   ( -1 -1  0)    11.198     5.926     0.000
                  3 F    (  1  0  1)    11.877     6.285     0.000

 ATOM A   3 F    ATOM B     CELL      R(AB)/AU R(AB)/ANG    OVPOP(AB)
                  1 MN   (  0  0  0)     3.959     2.095     0.000
                  5 F    (  0  0  0)     5.599     2.963     0.000
                  9 K    (  0  0  0)     5.599     2.963     0.000
                  4 F    (  0  0  0)     7.918     4.190     0.000
                  1 MN   (  1  0  1)     8.853     4.685     0.000
                  5 F    ( -1 -1  0)     9.697     5.132     0.000

 ATOM A   9 K    ATOM B     CELL      R(AB)/AU R(AB)/ANG    OVPOP(AB)
                  3 F    (  0  0  0)     5.599     2.963     0.000
                  1 MN   (  0  0  0)     6.857     3.629     0.000
                 10 K    (  1  0  0)     7.918     4.190     0.000
                  3 F    ( -1  0 -1)     9.697     5.132     0.000
                  9 K    ( -1 -1  0)    11.198     5.926     0.000
                  3 F    ( -1 -1  0)    12.519     6.625     0.000
 EIGENVECTORS IN FORTRAN UNIT  8
 TTTTTTTTTTTTTTTTTTTTTTTTTTTTTT END         TELAPSE      370.94 TCPU      371.13
 EEEEEEEEEE TERMINATION  DATE 03 12 2014 TIME 12:48:27.3
