
         
 *******************************************************************************
 *                                                                             *
 *                               CRYSTAL14                                     *
 *                      public : 1.0.2 - Feb 23rd, 2013                        *
 *                       HTTP://WWW.CRYSTAL.UNITO.IT                           *
 *                                                                             *
 *                              MAIN AUTHORS                                   *
 *                                                                             *
 *  R. DOVESI(1,11), V.R. SAUNDERS(2), C. ROETTI(1,11), R. ORLANDO(1,11),      *
 *  C.M. ZICOVICH-WILSON(1,3), F. PASCALE(4), B. CIVALLERI(1,11),              *
 *  K. DOLL(5), N.M. HARRISON(2,6), I. J. BUSH(7), Ph. D'ARCO(8),              *
 *  M. LLUNELL(9), M. CAUSA'(10), Y. NOEL(8)                                   *
 *                                                                             *
 *        CONTRIBUTIONS TO THE CURRENT RELEASE HAVE BEEN GIVEN BY              *
 *                                                                             *
 *  L. MASCHIO(1,11), S. CASASSA(1,11), A. ERBA(1,11), M. FERRABONE(1,11),     *
 *  M. DE LA PIERRE(1,11), M. FERRERO(1,11), V. LACIVITA(1,11),                *
 *  J. BAIMA(1,11), E. ALBANESE(1,11), M.F. PEINTINGER(12), R. BAST(13),       *
 *  M. RERAT(14), B. KIRTMAN(15), R. DEMICHELIS(1,16)                          *
 *                                                                             *
 * (1) THEORETICAL CHEMISTRY GROUP - UNIVERSITA' DI TORINO - TORINO (ITALY)    *
 *     http://www.crystal.unito.it                                             *
 * (2) COMPUTATIONAL SCIENCE & ENGINEERING DEPARTMENT - STFC DARESBURY (UK)    *
 *     http://www.stfc.ac.uk/CSE/randd/cmg/CRYSTAL/25806.aspx                  *
 * (3) UNIVERSIDAD AUTONOMA DEL ESTADO DE MORELOS - CUERNAVACA (MEXICO)        *
 * (4) UNIVERSITE' DE LORRAINE - NANCY (FRANCE)                                *
 * (5) UNIVERSITAET ULM - ULM (GERMANY); (6) IMPERIAL COLLEGE - LONDON (UK)    *
 * (7) NAG - OXFORD (UK); (8) UPMC - SORBONNE UNIVERSITES - PARIS (FRANCE)     *
 * (9) UNIVERSIDAD DE BARCELONA - BARCELONA (SPAIN)                            *
 *(10) UNIVERSITA' DI NAPOLI "FEDERICO II" - NAPOLI (ITALY)                    *
 *(11) NIS - NANOSTRUCTURED INTERFACES AND SURFACES - TORINO (ITALY)           *
 *(12) MPI FUER CHEMISCHE ENERGIEKONVERSION - MUELHEIM AN DER RUHR (GERMANY)   *
 *(13) UNIVERSITY OF STOCKHOLM - STOCKHOLM (SWEDEN)                            *
 *(14) UNIVERSITE' DE PAU ET DES PAYS DE L'ADOUR - PAU (FRANCE)                *
 *(15) UNIVERSITY OF CALIFORNIA SANTA BARBARA - SANTA BARBARA (USA)            *
 *(16) CURTIN UNIVERSITY - PERTH (AUSTRALIA)                                   *
 *                                                                             *
 ********************************************************************************
 EEEEEEEEEE STARTING  DATE 09 12 2014 TIME 09:51:28.3
 KMnF3 AF 4.19 rete k 4 4 4                                                      

 CRYSTAL CALCULATION
 (INPUT ACCORDING TO THE INTERNATIONAL TABLES FOR X-RAY CRYSTALLOGRAPHY)
 CRYSTAL FAMILY                       :  CUBIC       
 CRYSTAL CLASS  (GROTH - 1921)        :  CUBIC HEXAKISOCTAHEDRAL              

 SPACE GROUP (CENTROSYMMETRIC)        :  P M 3 M         

 LATTICE PARAMETERS  (ANGSTROMS AND DEGREES) - CONVENTIONAL CELL
        A           B           C        ALPHA        BETA       GAMMA
     4.19000     4.19000     4.19000    90.00000    90.00000    90.00000


 NUMBER OF IRREDUCIBLE ATOMS IN THE CONVENTIONAL CELL:    3

 INPUT COORDINATES

 ATOM AT. N.              COORDINATES
   1  25     0.000000000000E+00  0.000000000000E+00  0.000000000000E+00
   2   9     5.000000000000E-01  0.000000000000E+00  0.000000000000E+00
   3  19     5.000000000000E-01  5.000000000000E-01  5.000000000000E-01

 *******************************************************************************

 << INFORMATION >>: FROM NOW ON, ALL COORDINATES REFER TO THE PRIMITIVE CELL

 *******************************************************************************

 LATTICE PARAMETERS  (ANGSTROMS AND DEGREES) - PRIMITIVE CELL
       A          B          C         ALPHA     BETA     GAMMA        VOLUME
    4.19000    4.19000    4.19000    90.00000  90.00000  90.00000     73.560059

 COORDINATES OF THE EQUIVALENT ATOMS (FRACTIONAL UNITS)

 N. ATOM EQUIV AT. N.          X                  Y                  Z

   1   1   1   25 MN    0.00000000000E+00  0.00000000000E+00  0.00000000000E+00

   2   2   1    9 F    -5.00000000000E-01  0.00000000000E+00  0.00000000000E+00
   3   2   2    9 F     0.00000000000E+00 -5.00000000000E-01  0.00000000000E+00
   4   2   3    9 F     0.00000000000E+00  0.00000000000E+00 -5.00000000000E-01

   5   3   1   19 K    -5.00000000000E-01 -5.00000000000E-01 -5.00000000000E-01

 NUMBER OF SYMMETRY OPERATORS         :   48
 *******************************************************************************
 * GEOMETRY EDITING - INPUT COORDINATES ARE GIVEN IN ANGSTROM         
 *******************************************************************************

 GEOMETRY NOW FULLY CONSISTENT WITH THE GROUP

 NO SYMMOPS WITH FINITE TRANSLATIONAL COMPONENT

 *******************************************************************************
 * SUPERCELL OPTION
 *******************************************************************************

 INFORMATION **** GEXPAD **** SUPERCELL VOLUME NEGATIVE ? - SIGN OF EXPANSION MATRIX REVERSED

        EXPANSION MATRIX OF PRIMITIVE CELL
 E1    -1.000    -1.000     0.000
 E2     1.000     0.000     1.000
 E3     0.000     1.000     1.000

 NUMBER OF ATOMS PER SUPERCELL   10

        DIRECT LATTICE VECTORS COMPONENTS (ANGSTROM)
 B1    -4.190    -4.190     0.000
 B2     4.190     0.000     4.190
 B3     0.000     4.190     4.190

 LATTICE PARAMETERS  (ANGSTROM AND DEGREES)
       A          B          C         ALPHA     BETA     GAMMA        VOLUME
    5.92555    5.92555    5.92555    60.00000 120.00000 120.00000    147.120118


 **** ATOMS BELONGING TO THE SUPERCELL
 LABEL AT.NO.      COORDINATES (ANGSTROM AND FRACTIONAL)
     1    25     0.0000     0.0000     0.0000     0.0000     0.0000     0.0000
     2    25     0.0000     0.0000    -4.1900    -0.5000    -0.5000    -0.5000
     3     9    -2.0950     0.0000     0.0000     0.2500    -0.2500     0.2500
     4     9     2.0950     0.0000     0.0000    -0.2500     0.2500    -0.2500
     5     9     0.0000    -2.0950     0.0000     0.2500     0.2500    -0.2500
     6     9     0.0000     2.0950     0.0000    -0.2500    -0.2500     0.2500
     7     9     0.0000     0.0000    -2.0950    -0.2500    -0.2500    -0.2500
     8     9     0.0000     0.0000     2.0950     0.2500     0.2500     0.2500
     9    19    -2.0950    -2.0950    -2.0950     0.2500    -0.2500    -0.2500
    10    19     2.0950     2.0950     2.0950    -0.2500     0.2500     0.2500

 **************************** SUPERCELL GENERATED ****************************

 GCALCO - MAX INDICES DIRECT LATTICE VECTOR    14    14    14
 NO.OF VECTORS CREATED 6999 STARS  105 RMAX   118.50506 BOHR

 GEOMETRY FOR WAVE FUNCTION - DIMENSIONALITY OF THE SYSTEM    3
 (NON PERIODIC DIRECTION: LATTICE PARAMETER FORMALLY SET TO 500)
 *******************************************************************************
 LATTICE PARAMETERS (ANGSTROMS AND DEGREES) - BOHR = 0.5291772083 ANGSTROM
 PRIMITIVE CELL - CENTRING CODE 1/0 VOLUME=   147.120118 - DENSITY  3.406 g/cm^3
         A              B              C           ALPHA      BETA       GAMMA 
     5.92555483     5.92555483     5.92555483    60.000000 120.000000 120.000000
 *******************************************************************************
 ATOMS IN THE ASYMMETRIC UNIT    4 - ATOMS IN THE UNIT CELL:   10
     ATOM              X/A                 Y/B                 Z/C    
 *******************************************************************************
   1 T  25 MN    0.000000000000E+00  0.000000000000E+00  0.000000000000E+00
   2 T  25 MN   -5.000000000000E-01  5.000000000000E-01  5.000000000000E-01
   3 T   9 F     2.500000000000E-01 -2.500000000000E-01  2.500000000000E-01
   4 F   9 F    -2.500000000000E-01  2.500000000000E-01 -2.500000000000E-01
   5 F   9 F     2.500000000000E-01  2.500000000000E-01 -2.500000000000E-01
   6 F   9 F    -2.500000000000E-01 -2.500000000000E-01  2.500000000000E-01
   7 F   9 F    -2.500000000000E-01 -2.500000000000E-01 -2.500000000000E-01
   8 F   9 F     2.500000000000E-01  2.500000000000E-01  2.500000000000E-01
   9 T  19 K     2.500000000000E-01 -2.500000000000E-01 -2.500000000000E-01
  10 F  19 K    -2.500000000000E-01  2.500000000000E-01  2.500000000000E-01

 T = ATOM BELONGING TO THE ASYMMETRIC UNIT

 ****   48 SYMMOPS - TRANSLATORS IN FRACTIONAL UNITS
 **** MATRICES AND TRANSLATORS IN THE CRYSTALLOGRAPHIC REFERENCE FRAME
   V INV                    ROTATION MATRICES                   TRANSLATORS
   1   1  1.00  0.00  0.00  0.00  1.00  0.00  0.00  0.00  1.00  0.00  0.00  0.00
   2   2 -1.00  1.00  1.00  0.00  0.00  1.00  0.00  1.00  0.00  0.00  0.00  0.00
   3   3  0.00 -1.00  0.00 -1.00  0.00  0.00  1.00 -1.00 -1.00  0.00  0.00  0.00
   4   4  0.00  0.00 -1.00  1.00 -1.00 -1.00 -1.00  0.00  0.00  0.00  0.00  0.00
   5   6  0.00 -1.00  0.00  0.00  0.00  1.00 -1.00  0.00  0.00  0.00  0.00  0.00
   6   5  0.00  0.00 -1.00 -1.00  0.00  0.00  0.00  1.00  0.00  0.00  0.00  0.00
   7   8 -1.00  1.00  1.00 -1.00  0.00  0.00  0.00  0.00  1.00  0.00  0.00  0.00
   8   7  0.00 -1.00  0.00  1.00 -1.00 -1.00  0.00  0.00  1.00  0.00  0.00  0.00
   9  10  0.00  0.00 -1.00  0.00  1.00  0.00  1.00 -1.00 -1.00  0.00  0.00  0.00
  10   9 -1.00  1.00  1.00  0.00  1.00  0.00 -1.00  0.00  0.00  0.00  0.00  0.00
  11  12  1.00  0.00  0.00  1.00 -1.00 -1.00  0.00  1.00  0.00  0.00  0.00  0.00
  12  11  1.00  0.00  0.00  0.00  0.00  1.00  1.00 -1.00 -1.00  0.00  0.00  0.00
  13  13 -1.00  0.00  0.00  0.00  0.00 -1.00  0.00 -1.00  0.00  0.00  0.00  0.00
  14  14  1.00 -1.00 -1.00  0.00 -1.00  0.00  0.00  0.00 -1.00  0.00  0.00  0.00
  15  16  0.00  1.00  0.00 -1.00  1.00  1.00  1.00  0.00  0.00  0.00  0.00  0.00
  16  15  0.00  0.00  1.00  1.00  0.00  0.00 -1.00  1.00  1.00  0.00  0.00  0.00
  17  17  0.00  1.00  0.00  1.00  0.00  0.00  0.00  0.00 -1.00  0.00  0.00  0.00
  18  18  0.00  0.00  1.00  0.00 -1.00  0.00  1.00  0.00  0.00  0.00  0.00  0.00
  19  21  1.00 -1.00 -1.00  0.00  0.00 -1.00  1.00  0.00  0.00  0.00  0.00  0.00
  20  22  0.00  1.00  0.00  0.00  0.00 -1.00 -1.00  1.00  1.00  0.00  0.00  0.00
  21  19  0.00  0.00  1.00 -1.00  1.00  1.00  0.00 -1.00  0.00  0.00  0.00  0.00
  22  20  1.00 -1.00 -1.00  1.00  0.00  0.00  0.00 -1.00  0.00  0.00  0.00  0.00
  23  23 -1.00  0.00  0.00  0.00 -1.00  0.00 -1.00  1.00  1.00  0.00  0.00  0.00
  24  24 -1.00  0.00  0.00 -1.00  1.00  1.00  0.00  0.00 -1.00  0.00  0.00  0.00
  25  25 -1.00  0.00  0.00  0.00 -1.00  0.00  0.00  0.00 -1.00  0.00  0.00  0.00
  26  26  1.00 -1.00 -1.00  0.00  0.00 -1.00  0.00 -1.00  0.00  0.00  0.00  0.00
  27  27  0.00  1.00  0.00  1.00  0.00  0.00 -1.00  1.00  1.00  0.00  0.00  0.00
  28  28  0.00  0.00  1.00 -1.00  1.00  1.00  1.00  0.00  0.00  0.00  0.00  0.00
  29  30  0.00  1.00  0.00  0.00  0.00 -1.00  1.00  0.00  0.00  0.00  0.00  0.00
  30  29  0.00  0.00  1.00  1.00  0.00  0.00  0.00 -1.00  0.00  0.00  0.00  0.00
  31  32  1.00 -1.00 -1.00  1.00  0.00  0.00  0.00  0.00 -1.00  0.00  0.00  0.00
  32  31  0.00  1.00  0.00 -1.00  1.00  1.00  0.00  0.00 -1.00  0.00  0.00  0.00
  33  34  0.00  0.00  1.00  0.00 -1.00  0.00 -1.00  1.00  1.00  0.00  0.00  0.00
  34  33  1.00 -1.00 -1.00  0.00 -1.00  0.00  1.00  0.00  0.00  0.00  0.00  0.00
  35  36 -1.00  0.00  0.00 -1.00  1.00  1.00  0.00 -1.00  0.00  0.00  0.00  0.00
  36  35 -1.00  0.00  0.00  0.00  0.00 -1.00 -1.00  1.00  1.00  0.00  0.00  0.00
  37  37  1.00  0.00  0.00  0.00  0.00  1.00  0.00  1.00  0.00  0.00  0.00  0.00
  38  38 -1.00  1.00  1.00  0.00  1.00  0.00  0.00  0.00  1.00  0.00  0.00  0.00
  39  40  0.00 -1.00  0.00  1.00 -1.00 -1.00 -1.00  0.00  0.00  0.00  0.00  0.00
  40  39  0.00  0.00 -1.00 -1.00  0.00  0.00  1.00 -1.00 -1.00  0.00  0.00  0.00
  41  41  0.00 -1.00  0.00 -1.00  0.00  0.00  0.00  0.00  1.00  0.00  0.00  0.00
  42  42  0.00  0.00 -1.00  0.00  1.00  0.00 -1.00  0.00  0.00  0.00  0.00  0.00
  43  45 -1.00  1.00  1.00  0.00  0.00  1.00 -1.00  0.00  0.00  0.00  0.00  0.00
  44  46  0.00 -1.00  0.00  0.00  0.00  1.00  1.00 -1.00 -1.00  0.00  0.00  0.00
  45  43  0.00  0.00 -1.00  1.00 -1.00 -1.00  0.00  1.00  0.00  0.00  0.00  0.00
  46  44 -1.00  1.00  1.00 -1.00  0.00  0.00  0.00  1.00  0.00  0.00  0.00  0.00
  47  47  1.00  0.00  0.00  0.00  1.00  0.00  1.00 -1.00 -1.00  0.00  0.00  0.00
  48  48  1.00  0.00  0.00  1.00 -1.00 -1.00  0.00  0.00  1.00  0.00  0.00  0.00

 DIRECT LATTICE VECTORS CARTESIAN COMPONENTS (ANGSTROM)
          X                    Y                    Z
  -0.419000000000E+01  -0.419000000000E+01   0.000000000000E+00
   0.419000000000E+01   0.000000000000E+00   0.419000000000E+01
   0.000000000000E+00   0.419000000000E+01   0.419000000000E+01


 CARTESIAN COORDINATES - PRIMITIVE CELL
 *******************************************************************************
 *      ATOM          X(ANGSTROM)         Y(ANGSTROM)         Z(ANGSTROM)
 *******************************************************************************
    1    25 MN    0.000000000000E+00  0.000000000000E+00  0.000000000000E+00
    2    25 MN    0.000000000000E+00  0.000000000000E+00  4.190000000000E+00
    3     9 F    -2.095000000000E+00 -2.350018883046E-16  0.000000000000E+00
    4     9 F     2.095000000000E+00  2.350018883046E-16  0.000000000000E+00
    5     9 F    -2.350018883046E-16 -2.095000000000E+00  0.000000000000E+00
    6     9 F     2.350018883046E-16  2.095000000000E+00  0.000000000000E+00
    7     9 F     2.350018883046E-16  2.350018883046E-16 -2.095000000000E+00
    8     9 F    -2.350018883046E-16 -2.350018883046E-16  2.095000000000E+00
    9    19 K    -2.095000000000E+00 -2.095000000000E+00 -2.095000000000E+00
   10    19 K     2.095000000000E+00  2.095000000000E+00  2.095000000000E+00

 *******************************************************************************
 LOCAL ATOMIC FUNCTIONS BASIS SET
 *******************************************************************************
   ATOM   X(AU)   Y(AU)   Z(AU)  N. TYPE  EXPONENT  S COEF   P COEF   D/F/G COEF
 *******************************************************************************
   1 MN   0.000   0.000   0.000
                                  1 S  
                                         2.926E+05 2.270E-04 0.000E+00 0.000E+00
                                         4.226E+04 1.900E-03 0.000E+00 0.000E+00
                                         8.947E+03 1.110E-02 0.000E+00 0.000E+00
                                         2.330E+03 5.010E-02 0.000E+00 0.000E+00
                                         7.020E+02 1.705E-01 0.000E+00 0.000E+00
                                         2.429E+02 3.691E-01 0.000E+00 0.000E+00
                                         9.495E+01 4.035E-01 0.000E+00 0.000E+00
                                         3.958E+01 1.437E-01 0.000E+00 0.000E+00
                             2-   5 SP 
                                         7.321E+02-5.300E-03 8.600E-03 0.000E+00
                                         1.756E+02-6.730E-02 6.120E-02 0.000E+00
                                         5.851E+01-1.293E-01 2.135E-01 0.000E+00
                                         2.313E+01 2.535E-01 4.018E-01 0.000E+00
                                         9.754E+00 6.345E-01 4.012E-01 0.000E+00
                                         3.454E+00 2.714E-01 2.222E-01 0.000E+00
                             6-   9 SP 
                                         3.839E+01 1.570E-02-3.110E-02 0.000E+00
                                         1.544E+01-2.535E-01-9.690E-02 0.000E+00
                                         6.178E+00-8.648E-01 2.563E-01 0.000E+00
                                         2.824E+00 9.337E-01 1.655E+00 0.000E+00
                            10-  13 SP 
                                         1.209E+00 1.000E+00 1.000E+00 0.000E+00
                            14-  17 SP 
                                         4.986E-01 1.000E+00 1.000E+00 0.000E+00
                            18-  22 D  
                                         2.259E+01 0.000E+00 0.000E+00 7.080E-02
                                         6.167E+00 0.000E+00 0.000E+00 3.044E-01
                                         2.064E+00 0.000E+00 0.000E+00 5.469E-01
                                         7.401E-01 0.000E+00 0.000E+00 5.102E-01
                            23-  27 D  
                                         2.490E-01 0.000E+00 0.000E+00 1.000E+00
   2 MN   0.000   0.000   7.918
   3 F   -3.959   0.000   0.000
                                 55 S  
                                         1.377E+04 8.770E-04 0.000E+00 0.000E+00
                                         1.590E+03 9.150E-03 0.000E+00 0.000E+00
                                         3.265E+02 4.860E-02 0.000E+00 0.000E+00
                                         9.166E+01 1.691E-01 0.000E+00 0.000E+00
                                         3.046E+01 3.708E-01 0.000E+00 0.000E+00
                                         1.150E+01 4.165E-01 0.000E+00 0.000E+00
                                         4.760E+00 1.306E-01 0.000E+00 0.000E+00
                            56-  59 SP 
                                         1.900E+01-1.094E-01 1.244E-01 0.000E+00
                                         4.530E+00-1.289E-01 5.323E-01 0.000E+00
                                         1.387E+00 1.000E+00 1.000E+00 0.000E+00
                            60-  63 SP 
                                         4.400E-01 1.000E+00 1.000E+00 0.000E+00
                            64-  67 SP 
                                         1.790E-01 1.000E+00 1.000E+00 0.000E+00
   4 F    3.959   0.000   0.000
   5 F    0.000  -3.959   0.000
   6 F    0.000   3.959   0.000
   7 F    0.000   0.000  -3.959
   8 F    0.000   0.000   3.959
   9 K   -3.959  -3.959  -3.959
                                133 S  
                                         1.725E+05 2.200E-04 0.000E+00 0.000E+00
                                         2.432E+04 1.920E-03 0.000E+00 0.000E+00
                                         5.140E+03 1.109E-02 0.000E+00 0.000E+00
                                         1.344E+03 4.992E-02 0.000E+00 0.000E+00
                                         4.045E+02 1.702E-01 0.000E+00 0.000E+00
                                         1.394E+02 3.679E-01 0.000E+00 0.000E+00
                                         5.439E+01 4.036E-01 0.000E+00 0.000E+00
                                         2.271E+01 1.459E-01 0.000E+00 0.000E+00
                           134- 137 SP 
                                         4.020E+02-6.030E-03 8.410E-03 0.000E+00
                                         9.350E+01-8.050E-02 6.020E-02 0.000E+00
                                         3.075E+01-1.094E-01 2.117E-01 0.000E+00
                                         1.192E+01 2.580E-01 3.726E-01 0.000E+00
                                         5.167E+00 6.840E-01 4.022E-01 0.000E+00
                                         1.582E+00 3.990E-01 1.860E-01 0.000E+00
                           138- 141 SP 
                                         1.735E+01-7.400E-03-3.210E-02 0.000E+00
                                         7.550E+00-1.290E-01-6.200E-02 0.000E+00
                                         2.939E+00-6.834E-01 1.691E-01 0.000E+00
                                         1.190E+00 1.080E+00 1.500E+00 0.000E+00
                                         6.740E-01 1.030E+00 1.060E+00 0.000E+00
                           142- 145 SP 
                                         3.890E-01 1.000E+00 1.000E+00 0.000E+00
                           146- 149 SP 
                                         2.160E-01 1.000E+00 1.000E+00 0.000E+00
  10 K    3.959   3.959   3.959
 INFORMATION **** SET_MPP **** PCRYSTAL CALCULATION
 INFORMATION **** READM2 **** NEW DEFAULT: FOCK/KS MATRIX MIXING SET TO 30 %
 INFORMATION **** READM2 **** NEW DEFAULT: FULL DIRECT SCF MODE
 INFORMATION **** READM2 **** NEW DEFAULT: COULOMB BIPOLAR BUFFER SET TO 32 Mb
 INFORMATION **** READM2 **** NEW DEFAULT: EXCHANGE BIPOLAR BUFFER SET TO 32 Mb
 INFORMATION **** UHF **** SPIN POLARIZED SOLUTIONS ALLOWED
 INFORMATION **** TOLINTEG **** COULOMB AND EXCHANGE SERIES TOLERANCES MODIFIED
 INFORMATION **** MULPOPAN ****  MULLIKEN POPULATION ANALYSIS AT THE END OF SCF
 INFORMATION **** SPINLOCK **** LOCK IN A GIVEN SPIN STATE
 ALPHA-BETA ELECTRONS LOCKED TO   0 FOR  30 SCF CYCLES
 INFORMATION **** LEVSHIFT **** LEVEL SHIFTER ACTIVE
 INFORMATION **** TOLDEE **** SCF TOL ON TOTAL ENERGY SET TO           7
 INFORMATION **** GUESSP **** SCF GUESS FROM A PREVIOUS RUN DENSITY MATRIX
 INFORMATION **** SPINEDIT **** EDIT DIAGONAL BLOCKS IN DENSITY MATRIX
 SSSSSSSSSSSSSSSSSSSSSSSSSSSSSSSSSSSSSSSSSSSSSSSSSSSSSSSSSSSSSSSSSSSSSSSSSSSSSS
 SPIN INVERSION IN SPIN DENSITY MATRIX FOR ATOMS
   2
 *******************************************************************************
 N. OF ATOMS PER CELL        10  COULOMB OVERLAP TOL         (T1) 10**   -7
 NUMBER OF SHELLS            48  COULOMB PENETRATION TOL     (T2) 10**   -7
 NUMBER OF AO               166  EXCHANGE OVERLAP TOL        (T3) 10**   -7
 N. OF ELECTRONS PER CELL   142  EXCHANGE PSEUDO OVP (F(G))  (T4) 10**   -7
 CORE ELECTRONS PER CELL     84  EXCHANGE PSEUDO OVP (P(G))  (T5) 10**  -14
 N. OF SYMMETRY OPERATORS    48  POLE ORDER IN MONO ZONE                  4
 *******************************************************************************
 TYPE OF CALCULATION :  UNRESTRICTED OPEN SHELL
 HARTREE-FOCK HAMILTONIAN
 EIGENVALUE LEVEL SHIFTING OF  0.600 HARTREE
 LOCKING - FERMI ENERGY ALTERED BY LEVEL SHIFTER

 CAPPA:IS1  4;IS2  4;IS3  4; K PTS MONK NET   8; SYMMOPS:K SPACE  48;G SPACE  48

 *******************************************************************************
 MAX NUMBER OF SCF CYCLES      50  CONVERGENCE ON DELTAP        10**-17
 WEIGHT OF F(I) IN F(I+1)      30% CONVERGENCE ON ENERGY        10**- 7
 EIGENVALUE LEVEL SHIFTING OF  0.600 HARTREE
 LOCKING - FERMI ENERGY ALTERED BY LEVEL SHIFTER
 SHRINK. FACT.(MONKH.)    4  4  4  NUMBER OF K POINTS IN THE IBZ      8
 SHRINKING FACTOR(GILAT NET)    4  NUMBER OF K POINTS(GILAT NET)      8
 *******************************************************************************
 *** K POINTS COORDINATES (OBLIQUE COORDINATES IN UNITS OF IS =  4)
   1-R(  0  0  0)   2-C(  1  0  0)   3-R(  2  0  0)   4-C(  1  1  0)
   5-C(  2  1  0)   6-C(  3  1  0)   7-R(  2  2  0)   8-C(  1  2  1)

 DIRECT LATTICE VECTORS COMPON. (A.U.)     RECIP. LATTICE VECTORS COMPON. (A.U.) 
        X            Y            Z              X            Y            Z
   -7.9179525   -7.9179525    0.0000000     -0.3967683   -0.3967683    0.3967683
    7.9179525    0.0000000    7.9179525      0.3967683   -0.3967683    0.3967683
    0.0000000    7.9179525    7.9179525     -0.3967683    0.3967683    0.3967683

 DISK SPACE FOR EIGENVECTORS (FTN 10)      358228 REALS

 SYMMETRY ADAPTION OF THE BLOCH FUNCTIONS ENABLED

 MATRIX SIZE: P(G)  219526, F(G)   40810, P(G) IRR    7719, F(G) IRR    4037
 MAX G-VECTOR INDEX FOR 1- AND 2-ELECTRON INTEGRALS  87

 TTTTTTTTTTTTTTTTTTTTTTTTTTTTTT INPUT       TELAPSE        0.01 TCPU        0.01

 NEIGHBORS OF THE NON-EQUIVALENT ATOMS

 N = NUMBER OF NEIGHBORS AT DISTANCE R
    ATOM  N     R/ANG      R/AU   NEIGHBORS (ATOM LABELS AND CELL INDICES)
   1 MN   6     2.0950     3.9590    3 F    0 0 0    4 F    0 0 0    5 F    0 0 0
                                     6 F    0 0 0    7 F    0 0 0    8 F    0 0 0
   1 MN   8     3.6286     6.8571    9 K    0 0 0    9 K   -1 0 0    9 K    0 1 0
                                     9 K    0 0 1   10 K    0 0 0   10 K    1 0 0
                                    10 K    0-1 0   10 K    0 0-1
   1 MN   6     4.1900     7.9180    2 MN   0 0 0    2 MN  -1-1 0    2 MN  -1 0-1
                                     2 MN   0-1 0    2 MN   0 0-1    2 MN  -1-1-1
   1 MN  24     4.6846     8.8525    3 F   -1 0-1    3 F   -1 0 0    3 F    0 1 0
                                     3 F    0 1-1    4 F    1 0 1    4 F    1 0 0
                                     4 F    0-1 0    4 F    0-1 1    5 F    0-1 1
                                     5 F    0 0 1    5 F   -1 0 0    5 F   -1-1 0
                                     6 F    0 1-1    6 F    0 0-1    6 F    1 0 0
                                     6 F    1 1 0    7 F    1 1 0    7 F    0 1 0
                                     7 F    0 0 1    7 F    1 0 1    8 F   -1-1 0
                                     8 F    0-1 0    8 F    0 0-1    8 F   -1 0-1
   1 MN  12     5.9256    11.1977    1 MN  -1-1 0    1 MN   1 1 0    1 MN  -1 0-1
                                     1 MN   1 0 1    1 MN  -1 0 0    1 MN   1 0 0
                                     1 MN   0-1 0    1 MN   0 1 0    1 MN   0-1 1
                                     1 MN   0 1-1    1 MN   0 0-1    1 MN   0 0 1
   1 MN  30     6.2850    11.8769    3 F    1 1 0    3 F   -1-1 0    3 F    0 0 1
                                     3 F    0 0-1    3 F   -1 1-1    4 F   -1-1 0
                                     4 F    1 1 0    4 F    0 0-1    4 F    0 0 1
                                     4 F    1-1 1    5 F   -1 0-1    5 F    1 0 1
                                     5 F    0 1 0    5 F    0-1 0    5 F   -1-1 1
                                     6 F    1 0 1    6 F   -1 0-1    6 F    0-1 0
                                     6 F    0 1 0    6 F    1 1-1    7 F    0-1 1
                                     7 F    0 1-1    7 F   -1 0 0    7 F    1 0 0
                                     7 F    1 1 1    8 F    0 1-1    8 F    0-1 1
                                     8 F    1 0 0    8 F   -1 0 0    8 F   -1-1-1

   2 MN   6     2.0950     3.9590    3 F    0 1 0    4 F    1 0 1    5 F    0 0 1
                                     6 F    1 1 0    7 F    1 1 1    8 F    0 0 0
   2 MN   8     3.6286     6.8571    9 K    0 1 0    9 K    0 0 1    9 K    1 1 1
                                     9 K    0 1 1   10 K    1 1 0   10 K    1 0 1
                                    10 K    0 0 0   10 K    1 0 0
   2 MN   6     4.1900     7.9180    1 MN   0 0 0    1 MN   1 1 0    1 MN   1 0 1
                                     1 MN   0 1 0    1 MN   0 0 1    1 MN   1 1 1
   2 MN  24     4.6846     8.8525    3 F    0 0 0    3 F    1 1 0    3 F    0 0 1
                                     3 F    1 1 1    4 F    0 0 0    4 F    0 0 1
                                     4 F    1 1 0    4 F    1 1 1    5 F    1 0 1
                                     5 F    0 0 0    5 F    1 1 1    5 F    0 1 0
                                     6 F    0 1 0    6 F    0 0 0    6 F    1 1 1
                                     6 F    1 0 1    7 F    1 1 0    7 F    1 0 1
                                     7 F    0 1 0    7 F    0 0 1    8 F    1 1 0
                                     8 F    0 1 0    8 F    1 0 1    8 F    0 0 1
   2 MN  12     5.9256    11.1977    2 MN  -1-1 0    2 MN   1 1 0    2 MN  -1 0-1
                                     2 MN   1 0 1    2 MN  -1 0 0    2 MN   1 0 0
                                     2 MN   0-1 0    2 MN   0 1 0    2 MN   0-1 1
                                     2 MN   0 1-1    2 MN   0 0-1    2 MN   0 0 1
   2 MN  30     6.2850    11.8769    3 F    1 0 1    3 F   -1 0 0    3 F    0 1-1
                                     3 F    1 2 0    3 F    0 1 1    4 F    0 1 0
                                     4 F    1 0 0    4 F    0-1 1    4 F    1 0 2
                                     4 F    2 1 1    5 F    1 1 0    5 F    1 0 2
                                     5 F    0-1 1    5 F   -1 0 0    5 F    0 1 1
                                     6 F    0 0 1    6 F    1 2 0    6 F    0 1-1
                                     6 F    1 0 0    6 F    2 1 1    7 F    0 0 0
                                     7 F    1 2 0    7 F    2 1 1    7 F    1 0 2
                                     7 F    0 1 1    8 F    1 1 1    8 F    1 0 0
                                     8 F    0 1-1    8 F   -1 0 0    8 F    0-1 1

   3 F    2     2.0950     3.9590    1 MN   0 0 0    2 MN   0-1 0
   3 F    8     2.9628     5.5988    5 F    0 0 0    5 F    0-1 1    6 F    0 0 0
                                     6 F    1 0 0    7 F    0 0 0    7 F    1 0 1
                                     8 F    0 0 0    8 F    0-1 0
   3 F    4     2.9628     5.5988    9 K    0 0 0    9 K    0 0 1   10 K    1 0 0
                                    10 K    0-1 0
   3 F    6     4.1900     7.9180    4 F    0 0 0    4 F    1 0 1    4 F    1 0 0
                                     4 F    0-1 0    4 F    0-1 1    4 F    1-1 1
   3 F    8     4.6846     8.8525    1 MN   1 0 1    1 MN   1 0 0    1 MN   0-1 0
                                     1 MN   0-1 1    2 MN   0 0 0    2 MN  -1-1 0
                                     2 MN   0 0-1    2 MN  -1-1-1
   3 F   16     5.1317     9.6975    5 F   -1-1 0    5 F    1 0 1    5 F    0-1 0
                                     5 F    0 0 1    6 F    1 1 0    6 F    0-1 0
                                     6 F    1 0 1    6 F    0 0-1    7 F    0-1 1
                                     7 F    1 1 0    7 F    0 0 1    7 F    1 0 0
                                     8 F    0-1 1    8 F    0 0-1    8 F   -1-1 0
                                     8 F    1 0 0

   9 K   12     2.9628     5.5988    3 F    0 0 0    3 F    0 0-1    4 F    1 0 0
                                     4 F    0-1 0    5 F    0 0 0    5 F    0-1 0
                                     6 F    1 0 0    6 F    0 0-1    7 F    0 0 0
                                     7 F    1 0 0    8 F    0-1 0    8 F    0 0-1
   9 K    8     3.6286     6.8571    1 MN   0 0 0    1 MN   1 0 0    1 MN   0-1 0
                                     1 MN   0 0-1    2 MN   0-1 0    2 MN   0 0-1
                                     2 MN  -1-1-1    2 MN   0-1-1
   9 K    6     4.1900     7.9180   10 K    1 0 0   10 K    0-1 0   10 K    0 0-1
                                    10 K    1 0-1   10 K    1-1 0   10 K    0-1-1
   9 K   24     5.1317     9.6975    3 F   -1 0-1    3 F    1 0 0    3 F    0-1 0
                                     3 F    0 1-1    4 F    1-1 0    4 F    0 0 0
                                     4 F    0 0-1    4 F    1-1 1    5 F    0-1 1
                                     5 F    0 0-1    5 F    1 0 0    5 F   -1-1 0
                                     6 F    1 1-1    6 F    0-1 0    6 F    0 0 0
                                     6 F    1 0-1    7 F    1 1 0    7 F    0-1 0
                                     7 F    0 0-1    7 F    1 0 1    8 F    0-1-1
                                     8 F    0 0 0    8 F    1 0 0    8 F   -1-1-1
   9 K   12     5.9256    11.1977    9 K   -1-1 0    9 K    1 1 0    9 K   -1 0-1
                                     9 K    1 0 1    9 K   -1 0 0    9 K    1 0 0
                                     9 K    0-1 0    9 K    0 1 0    9 K    0-1 1
                                     9 K    0 1-1    9 K    0 0-1    9 K    0 0 1
   9 K   24     6.6250    12.5194    3 F   -1-1 0    3 F    1 1 0    3 F   -1-1-1
                                     3 F    1 1-1    4 F    1 0-1    4 F    1 0 1
                                     4 F    0-1-1    4 F    0-1 1    5 F    1 0 1
                                     5 F   -1 0-1    5 F    1-1 1    5 F   -1-1-1
                                     6 F    1 1 0    6 F    1-1 0    6 F    0 1-1
                                     6 F    0-1-1    7 F    0 1-1    7 F    0-1 1
                                     7 F    1 1-1    7 F    1-1 1    8 F    1-1 0
                                     8 F   -1-1 0    8 F    1 0-1    8 F   -1 0-1


 SYMMETRY ALLOWED INTERNAL DEGREE(S) OF FREEDOM:   1
 TTTTTTTTTTTTTTTTTTTTTTTTTTTTTT SYMM        TELAPSE        0.01 TCPU        0.01
 TTTTTTTTTTTTTTTTTTTTTTTTTTTTTT INT_SCREEN  TELAPSE        0.01 TCPU        0.01
 INFORMATION **** EXCBUF **** EXCH. BIPO BUFFER: WORDS USED =      605367
 EEEEEEEEEE INT_CALC TERMINATION  DATE 09 12 2014 TIME 09:51:28.3

 *******************************************************************************
 KMnF3 AF 4.19 rete k 4 4 4                                                      
 CRYSTAL - SCF - TYPE OF CALCULATION :  UNRESTRICTED OPEN SHELL
 *******************************************************************************

 CAPPA:IS1  4;IS2  4;IS3  4; K PTS MONK NET   8; SYMMOPS:K SPACE  48;G SPACE  48

 TTTTTTTTTTTTTTTTTTTTTTTTTTTTTT SDIK        TELAPSE        0.06 TCPU        0.06

 INFORMATION FROM INTEGRAL EVALUATION

 RESTART FROM A PREVIOUS DENSITY MATRIX - DEP ACTIVE
 NUMBER OF COUPLE SETS (NEW, OLD, FOUND):     255     255     255
 NUMBER OF IRREDUCIBLE G VECTORS        :     514     514     514
 SSSSSSSSSSSSSSSSSSSSSSSSSSSSSSSSSSSSSSSSSSSSSSSSSSSSSSSSSSSSSSSSSSSSSSSSSSSSSS
 SPIN INVERSION IN SPIN DENSITY MATRIX FOR ATOMS
   2

 *******************************************************************************
 LOCAL ATOMIC FUNCTIONS BASIS SET
 *******************************************************************************
   ATOM   X(AU)   Y(AU)   Z(AU)  N. TYPE  EXPONENT  S COEF   P COEF   D/F/G COEF
 *******************************************************************************
   1 MN   0.000   0.000   0.000
                                  1 S  
                                         2.926E+05 4.942E+00 0.000E+00 0.000E+00
                                         4.226E+04 9.692E+00 0.000E+00 0.000E+00
                                         8.947E+03 1.767E+01 0.000E+00 0.000E+00
                                         2.330E+03 2.908E+01 0.000E+00 0.000E+00
                                         7.020E+02 4.024E+01 0.000E+00 0.000E+00
                                         2.429E+02 3.930E+01 0.000E+00 0.000E+00
                                         9.495E+01 2.124E+01 0.000E+00 0.000E+00
                                         3.958E+01 3.924E+00 0.000E+00 0.000E+00
                             2-   5 SP 
                                         7.321E+02-1.297E+00 1.066E+02 0.000E+00
                                         1.756E+02-5.644E+00 1.273E+02 0.000E+00
                                         5.851E+01-4.756E+00 1.125E+02 0.000E+00
                                         2.313E+01 4.649E+00 6.635E+01 0.000E+00
                                         9.754E+00 6.089E+00 2.251E+01 0.000E+00
                                         3.454E+00 1.196E+00 3.407E+00 0.000E+00
                             6-   9 SP 
                                         3.839E+01 7.488E-01-5.656E+00 0.000E+00
                                         1.544E+01-6.105E+00-5.643E+00 0.000E+00
                                         6.178E+00-1.048E+01 4.751E+00 0.000E+00
                                         2.824E+00 6.289E+00 1.153E+01 0.000E+00
                            10-  13 SP 
                                         1.209E+00 1.998E+00 4.393E+00 0.000E+00
                            14-  17 SP 
                                         4.986E-01 1.028E+00 1.452E+00 0.000E+00
                            18-  22 D  
                                         2.259E+01 0.000E+00 0.000E+00 5.800E+01
                                         6.167E+00 0.000E+00 0.000E+00 2.571E+01
                                         2.064E+00 0.000E+00 0.000E+00 6.800E+00
                                         7.401E-01 0.000E+00 0.000E+00 1.054E+00
                            23-  27 D  
                                         2.490E-01 0.000E+00 0.000E+00 3.513E-01
   2 MN   0.000   0.000   7.918
   3 F   -3.959   0.000   0.000
                                 55 S  
                                         1.377E+04 1.939E+00 0.000E+00 0.000E+00
                                         1.590E+03 4.007E+00 0.000E+00 0.000E+00
                                         3.265E+02 6.492E+00 0.000E+00 0.000E+00
                                         9.166E+01 8.712E+00 0.000E+00 0.000E+00
                                         3.046E+01 8.361E+00 0.000E+00 0.000E+00
                                         1.150E+01 4.523E+00 0.000E+00 0.000E+00
                                         4.760E+00 7.320E-01 0.000E+00 0.000E+00
                            56-  59 SP 
                                         1.900E+01-1.968E+00 1.175E+01 0.000E+00
                                         4.530E+00-7.911E-01 8.375E+00 0.000E+00
                                         1.387E+00 2.526E+00 3.584E+00 0.000E+00
                            60-  63 SP 
                                         4.400E-01 9.364E-01 1.242E+00 0.000E+00
                            64-  67 SP 
                                         1.790E-01 4.770E-01 4.036E-01 0.000E+00
   4 F    3.959   0.000   0.000
   5 F    0.000  -3.959   0.000
   6 F    0.000   3.959   0.000
   7 F    0.000   0.000  -3.959
   8 F    0.000   0.000   3.959
   9 K   -3.959  -3.959  -3.959
                                133 S  
                                         1.725E+05 3.222E+00 0.000E+00 0.000E+00
                                         2.432E+04 6.470E+00 0.000E+00 0.000E+00
                                         5.140E+03 1.165E+01 0.000E+00 0.000E+00
                                         1.344E+03 1.917E+01 0.000E+00 0.000E+00
                                         4.045E+02 2.657E+01 0.000E+00 0.000E+00
                                         1.394E+02 2.583E+01 0.000E+00 0.000E+00
                                         5.439E+01 1.399E+01 0.000E+00 0.000E+00
                                         2.271E+01 2.627E+00 0.000E+00 0.000E+00
                           134- 137 SP 
                                         4.020E+02-8.089E-01 5.216E+01 0.000E+00
                                         9.350E+01-3.617E+00 6.031E+01 0.000E+00
                                         3.075E+01-2.135E+00 5.282E+01 0.000E+00
                                         1.192E+01 2.473E+00 2.844E+01 0.000E+00
                                         5.167E+00 3.503E+00 1.080E+01 0.000E+00
                                         1.582E+00 8.410E-01 1.137E+00 0.000E+00
                           138- 141 SP 
                                         1.735E+01-6.969E-02-1.519E+00 0.000E+00
                                         7.550E+00-6.509E-01-1.037E+00 0.000E+00
                                         2.939E+00-1.699E+00 8.694E-01 0.000E+00
                                         1.190E+00 1.363E+00 2.491E+00 0.000E+00
                                         6.740E-01 8.488E-01 8.649E-01 0.000E+00
                           142- 145 SP 
                                         3.890E-01 8.538E-01 1.065E+00 0.000E+00
                           146- 149 SP 
                                         2.160E-01 5.492E-01 5.105E-01 0.000E+00
  10 K    3.959   3.959   3.959
 CHARGE NORMALIZATION FACTOR   1.00000000
 TOTAL ATOMIC CHARGES:
  23.2229735  23.2229735   9.9237333   9.9237333   9.9237333   9.9237333
   9.9237333   9.9237333  18.0058266  18.0058266
 SUMMED SPIN DENSITY          -0.29048301
 TOTAL ATOMIC SPINS  :
   4.9417113  -5.3487717   0.0198016   0.0198016   0.0198016   0.0198016
   0.0198016   0.0198016  -0.0011162  -0.0011162
 TTTTTTTTTTTTTTTTTTTTTTTTTTTTTT MOQGAD      TELAPSE        0.11 TCPU        0.09
 TTTTTTTTTTTTTTTTTTTTTTTTTTTTTT SHELLX2     TELAPSE        7.34 TCPU        7.32
 TTTTTTTTTTTTTTTTTTTTTTTTTTTTTT MONMO3      TELAPSE        7.47 TCPU        7.45
 CYC   0 ETOT(AU) -4.095462781940E+03 DETOT -4.10E+03 tst  0.00E+00 PX  1.00E+00
 TTTTTTTTTTTTTTTTTTTTTTTTTTTTTT FDIK        TELAPSE        7.55 TCPU        7.53

    ALPHA      ELECTRONS
 INSULATING STATE - LEVEL SHIFTER    0.60 au
 TOP OF VALENCE BANDS -    BAND     71; K    1; EIG -1.0000000E+00 AU
 BOTTOM OF VIRTUAL BANDS - BAND     72; K    1; EIG  1.0000000E+00 AU

    BETA       ELECTRONS
 INSULATING STATE - LEVEL SHIFTER    0.60 au
 TOP OF VALENCE BANDS -    BAND     71; K    1; EIG -1.0000000E+00 AU
 BOTTOM OF VIRTUAL BANDS - BAND     72; K    1; EIG  1.0000000E+00 AU
 TTTTTTTTTTTTTTTTTTTTTTTTTTTTTT PDIG        TELAPSE        7.57 TCPU        7.55
 CHARGE NORMALIZATION FACTOR   1.00000000
 TOTAL ATOMIC CHARGES:
  23.2257179  23.1406022   9.9370938   9.9370938   9.9370938   9.9370938
   9.9370938   9.9370938  18.0055585  18.0055585
 SUMMED SPIN DENSITY           0.00000000
 TOTAL ATOMIC SPINS  :
   4.9442096  -5.0462972   0.0169754   0.0169754   0.0169754   0.0169754
   0.0169754   0.0169754   0.0001177   0.0001177
 TTTTTTTTTTTTTTTTTTTTTTTTTTTTTT MOQGAD      TELAPSE        7.60 TCPU        7.58
 TTTTTTTTTTTTTTTTTTTTTTTTTTTTTT SHELLX2     TELAPSE       14.81 TCPU       14.79
 TTTTTTTTTTTTTTTTTTTTTTTTTTTTTT MONMO3      TELAPSE       14.93 TCPU       14.92
 CYC   1 ETOT(AU) -4.095273271007E+03 DETOT  1.90E-01 tst  0.00E+00 PX  9.43E-02
 TTTTTTTTTTTTTTTTTTTTTTTTTTTTTT FDIK        TELAPSE       14.97 TCPU       14.96

    ALPHA      ELECTRONS
 INSULATING STATE - LEVEL SHIFTER    0.60 au
 TOP OF VALENCE BANDS -    BAND     71; K    1; EIG -1.0000000E+00 AU
 BOTTOM OF VIRTUAL BANDS - BAND     72; K    1; EIG  1.0000000E+00 AU

    BETA       ELECTRONS
 INSULATING STATE - LEVEL SHIFTER    0.60 au
 TOP OF VALENCE BANDS -    BAND     71; K    1; EIG -1.0000000E+00 AU
 BOTTOM OF VIRTUAL BANDS - BAND     72; K    1; EIG  1.0000000E+00 AU
 TTTTTTTTTTTTTTTTTTTTTTTTTTTTTT PDIG        TELAPSE       14.99 TCPU       14.97
 CHARGE NORMALIZATION FACTOR   1.00000000
 TOTAL ATOMIC CHARGES:
  23.2233255  23.1664398   9.9331704   9.9331704   9.9331704   9.9331704
   9.9331704   9.9331704  18.0056061  18.0056061
 SUMMED SPIN DENSITY           0.00000000
 TOTAL ATOMIC SPINS  :
   4.9440757  -5.0170298   0.0121563   0.0121563   0.0121563   0.0121563
   0.0121563   0.0121563   0.0000082   0.0000082
 TTTTTTTTTTTTTTTTTTTTTTTTTTTTTT MOQGAD      TELAPSE       15.02 TCPU       15.01
 TTTTTTTTTTTTTTTTTTTTTTTTTTTTTT SHELLX2     TELAPSE       22.26 TCPU       22.25
 TTTTTTTTTTTTTTTTTTTTTTTTTTTTTT MONMO3      TELAPSE       22.39 TCPU       22.38
 CYC   2 ETOT(AU) -4.095281450391E+03 DETOT -8.18E-03 tst  1.11E-03 PX  7.46E-03
 TTTTTTTTTTTTTTTTTTTTTTTTTTTTTT FDIK        TELAPSE       22.43 TCPU       22.42

    ALPHA      ELECTRONS
 INSULATING STATE - LEVEL SHIFTER    0.60 au
 TOP OF VALENCE BANDS -    BAND     71; K    1; EIG -1.0000000E+00 AU
 BOTTOM OF VIRTUAL BANDS - BAND     72; K    1; EIG  1.0000000E+00 AU

    BETA       ELECTRONS
 INSULATING STATE - LEVEL SHIFTER    0.60 au
 TOP OF VALENCE BANDS -    BAND     71; K    1; EIG -1.0000000E+00 AU
 BOTTOM OF VIRTUAL BANDS - BAND     72; K    1; EIG  1.0000000E+00 AU
 TTTTTTTTTTTTTTTTTTTTTTTTTTTTTT PDIG        TELAPSE       22.45 TCPU       22.44
 CHARGE NORMALIZATION FACTOR   1.00000000
 TOTAL ATOMIC CHARGES:
  23.2221302  23.1881390   9.9297357   9.9297357   9.9297357   9.9297357
   9.9297357   9.9297357  18.0056584  18.0056584
 SUMMED SPIN DENSITY           0.00000000
 TOTAL ATOMIC SPINS  :
   4.9437111  -4.9913122   0.0079597   0.0079597   0.0079597   0.0079597
   0.0079597   0.0079597  -0.0000787  -0.0000787
 TTTTTTTTTTTTTTTTTTTTTTTTTTTTTT MOQGAD      TELAPSE       22.48 TCPU       22.47
 TTTTTTTTTTTTTTTTTTTTTTTTTTTTTT SHELLX2     TELAPSE       29.70 TCPU       29.70
 TTTTTTTTTTTTTTTTTTTTTTTTTTTTTT MONMO3      TELAPSE       29.83 TCPU       29.82
 CYC   3 ETOT(AU) -4.095285078348E+03 DETOT -3.63E-03 tst  5.79E-04 PX  4.76E-03
 TTTTTTTTTTTTTTTTTTTTTTTTTTTTTT FDIK        TELAPSE       29.87 TCPU       29.86

    ALPHA      ELECTRONS
 INSULATING STATE - LEVEL SHIFTER    0.60 au
 TOP OF VALENCE BANDS -    BAND     71; K    1; EIG -1.0000000E+00 AU
 BOTTOM OF VIRTUAL BANDS - BAND     72; K    1; EIG  1.0000000E+00 AU

    BETA       ELECTRONS
 INSULATING STATE - LEVEL SHIFTER    0.60 au
 TOP OF VALENCE BANDS -    BAND     71; K    1; EIG -1.0000000E+00 AU
 BOTTOM OF VIRTUAL BANDS - BAND     72; K    1; EIG  1.0000000E+00 AU
 TTTTTTTTTTTTTTTTTTTTTTTTTTTTTT PDIG        TELAPSE       29.89 TCPU       29.88
 CHARGE NORMALIZATION FACTOR   1.00000000
 TOTAL ATOMIC CHARGES:
  23.2220627  23.2022282   9.9273855   9.9273855   9.9273855   9.9273855
   9.9273855   9.9273855  18.0056982  18.0056982
 SUMMED SPIN DENSITY           0.00000000
 TOTAL ATOMIC SPINS  :
   4.9431516  -4.9735273   0.0051061   0.0051061   0.0051061   0.0051061
   0.0051061   0.0051061  -0.0001304  -0.0001304
 TTTTTTTTTTTTTTTTTTTTTTTTTTTTTT MOQGAD      TELAPSE       29.92 TCPU       29.91
 TTTTTTTTTTTTTTTTTTTTTTTTTTTTTT SHELLX2     TELAPSE       37.23 TCPU       37.22
 TTTTTTTTTTTTTTTTTTTTTTTTTTTTTT MONMO3      TELAPSE       37.36 TCPU       37.36
 CYC   4 ETOT(AU) -4.095286458256E+03 DETOT -1.38E-03 tst  2.21E-04 PX  2.88E-03
 TTTTTTTTTTTTTTTTTTTTTTTTTTTTTT FDIK        TELAPSE       37.40 TCPU       37.40

    ALPHA      ELECTRONS
 INSULATING STATE - LEVEL SHIFTER    0.60 au
 TOP OF VALENCE BANDS -    BAND     71; K    1; EIG -1.0000000E+00 AU
 BOTTOM OF VIRTUAL BANDS - BAND     72; K    1; EIG  1.0000000E+00 AU

    BETA       ELECTRONS
 INSULATING STATE - LEVEL SHIFTER    0.60 au
 TOP OF VALENCE BANDS -    BAND     71; K    1; EIG -1.0000000E+00 AU
 BOTTOM OF VIRTUAL BANDS - BAND     72; K    1; EIG  1.0000000E+00 AU
 TTTTTTTTTTTTTTTTTTTTTTTTTTTTTT PDIG        TELAPSE       37.41 TCPU       37.41
 CHARGE NORMALIZATION FACTOR   1.00000000
 TOTAL ATOMIC CHARGES:
  23.2224153  23.2106656   9.9259097   9.9259097   9.9259097   9.9259097
   9.9259097   9.9259097  18.0057305  18.0057305
 SUMMED SPIN DENSITY           0.00000000
 TOTAL ATOMIC SPINS  :
   4.9425314  -4.9618866   0.0032747   0.0032747   0.0032747   0.0032747
   0.0032747   0.0032747  -0.0001464  -0.0001464
 TTTTTTTTTTTTTTTTTTTTTTTTTTTTTT MOQGAD      TELAPSE       37.45 TCPU       37.45
 TTTTTTTTTTTTTTTTTTTTTTTTTTTTTT SHELLX2     TELAPSE       44.68 TCPU       44.68
 TTTTTTTTTTTTTTTTTTTTTTTTTTTTTT MONMO3      TELAPSE       44.81 TCPU       44.81
 CYC   5 ETOT(AU) -4.095286993623E+03 DETOT -5.35E-04 tst  8.11E-05 PX  1.70E-03
 TTTTTTTTTTTTTTTTTTTTTTTTTTTTTT FDIK        TELAPSE       44.85 TCPU       44.85

    ALPHA      ELECTRONS
 INSULATING STATE - LEVEL SHIFTER    0.60 au
 TOP OF VALENCE BANDS -    BAND     71; K    1; EIG -1.0000000E+00 AU
 BOTTOM OF VIRTUAL BANDS - BAND     72; K    1; EIG  1.0000000E+00 AU

    BETA       ELECTRONS
 INSULATING STATE - LEVEL SHIFTER    0.60 au
 TOP OF VALENCE BANDS -    BAND     71; K    1; EIG -1.0000000E+00 AU
 BOTTOM OF VIRTUAL BANDS - BAND     72; K    1; EIG  1.0000000E+00 AU
 TTTTTTTTTTTTTTTTTTTTTTTTTTTTTT PDIG        TELAPSE       44.87 TCPU       44.87
 CHARGE NORMALIZATION FACTOR   1.00000000
 TOTAL ATOMIC CHARGES:
  23.2228294  23.2156624   9.9249976   9.9249976   9.9249976   9.9249976
   9.9249976   9.9249976  18.0057614  18.0057614
 SUMMED SPIN DENSITY           0.00000000
 TOTAL ATOMIC SPINS  :
   4.9420067  -4.9544355   0.0021201   0.0021201   0.0021201   0.0021201
   0.0021201   0.0021201  -0.0001458  -0.0001458
 TTTTTTTTTTTTTTTTTTTTTTTTTTTTTT MOQGAD      TELAPSE       44.90 TCPU       44.90
 TTTTTTTTTTTTTTTTTTTTTTTTTTTTTT SHELLX2     TELAPSE       52.20 TCPU       52.21
 TTTTTTTTTTTTTTTTTTTTTTTTTTTTTT MONMO3      TELAPSE       52.33 TCPU       52.34
 CYC   6 ETOT(AU) -4.095287215057E+03 DETOT -2.21E-04 tst  3.02E-05 PX  1.09E-03
 TTTTTTTTTTTTTTTTTTTTTTTTTTTTTT FDIK        TELAPSE       52.37 TCPU       52.38

    ALPHA      ELECTRONS
 INSULATING STATE - LEVEL SHIFTER    0.60 au
 TOP OF VALENCE BANDS -    BAND     71; K    1; EIG -1.0000000E+00 AU
 BOTTOM OF VIRTUAL BANDS - BAND     72; K    1; EIG  1.0000000E+00 AU

    BETA       ELECTRONS
 INSULATING STATE - LEVEL SHIFTER    0.60 au
 TOP OF VALENCE BANDS -    BAND     71; K    1; EIG -1.0000000E+00 AU
 BOTTOM OF VIRTUAL BANDS - BAND     72; K    1; EIG  1.0000000E+00 AU
 TTTTTTTTTTTTTTTTTTTTTTTTTTTTTT PDIG        TELAPSE       52.39 TCPU       52.39
 CHARGE NORMALIZATION FACTOR   1.00000000
 TOTAL ATOMIC CHARGES:
  23.2231588  23.2186477   9.9244384   9.9244384   9.9244384   9.9244384
   9.9244384   9.9244384  18.0057816  18.0057816
 SUMMED SPIN DENSITY           0.00000000
 TOTAL ATOMIC SPINS  :
   4.9416054  -4.9496948   0.0013928   0.0013928   0.0013928   0.0013928
   0.0013928   0.0013928  -0.0001338  -0.0001338
 TTTTTTTTTTTTTTTTTTTTTTTTTTTTTT MOQGAD      TELAPSE       52.42 TCPU       52.43
 TTTTTTTTTTTTTTTTTTTTTTTTTTTTTT SHELLX2     TELAPSE       59.76 TCPU       59.77
 TTTTTTTTTTTTTTTTTTTTTTTTTTTTTT MONMO3      TELAPSE       59.90 TCPU       59.91
 CYC   7 ETOT(AU) -4.095287314501E+03 DETOT -9.94E-05 tst  1.15E-05 PX  8.59E-04
 TTTTTTTTTTTTTTTTTTTTTTTTTTTTTT FDIK        TELAPSE       59.94 TCPU       59.95

    ALPHA      ELECTRONS
 INSULATING STATE - LEVEL SHIFTER    0.60 au
 TOP OF VALENCE BANDS -    BAND     71; K    1; EIG -1.0000000E+00 AU
 BOTTOM OF VIRTUAL BANDS - BAND     72; K    1; EIG  1.0000000E+00 AU

    BETA       ELECTRONS
 INSULATING STATE - LEVEL SHIFTER    0.60 au
 TOP OF VALENCE BANDS -    BAND     71; K    1; EIG -1.0000000E+00 AU
 BOTTOM OF VIRTUAL BANDS - BAND     72; K    1; EIG  1.0000000E+00 AU
 TTTTTTTTTTTTTTTTTTTTTTTTTTTTTT PDIG        TELAPSE       59.96 TCPU       59.97
 CHARGE NORMALIZATION FACTOR   1.00000000
 TOTAL ATOMIC CHARGES:
  23.2233796  23.2204544   9.9240962   9.9240962   9.9240962   9.9240962
   9.9240962   9.9240962  18.0057943  18.0057943
 SUMMED SPIN DENSITY           0.00000000
 TOTAL ATOMIC SPINS  :
   4.9413094  -4.9466766   0.0009343   0.0009343   0.0009343   0.0009343
   0.0009343   0.0009343  -0.0001194  -0.0001194
 TTTTTTTTTTTTTTTTTTTTTTTTTTTTTT MOQGAD      TELAPSE       59.99 TCPU       60.00
 TTTTTTTTTTTTTTTTTTTTTTTTTTTTTT SHELLX2     TELAPSE       67.34 TCPU       67.36
 TTTTTTTTTTTTTTTTTTTTTTTTTTTTTT MONMO3      TELAPSE       67.47 TCPU       67.49
 CYC   8 ETOT(AU) -4.095287362944E+03 DETOT -4.84E-05 tst  4.56E-06 PX  6.73E-04
 TTTTTTTTTTTTTTTTTTTTTTTTTTTTTT FDIK        TELAPSE       67.51 TCPU       67.52

    ALPHA      ELECTRONS
 INSULATING STATE - LEVEL SHIFTER    0.60 au
 TOP OF VALENCE BANDS -    BAND     71; K    1; EIG -1.0000000E+00 AU
 BOTTOM OF VIRTUAL BANDS - BAND     72; K    1; EIG  1.0000000E+00 AU

    BETA       ELECTRONS
 INSULATING STATE - LEVEL SHIFTER    0.60 au
 TOP OF VALENCE BANDS -    BAND     71; K    1; EIG -1.0000000E+00 AU
 BOTTOM OF VIRTUAL BANDS - BAND     72; K    1; EIG  1.0000000E+00 AU
 TTTTTTTTTTTTTTTTTTTTTTTTTTTTTT PDIG        TELAPSE       67.53 TCPU       67.54
 CHARGE NORMALIZATION FACTOR   1.00000000
 TOTAL ATOMIC CHARGES:
  23.2235187  23.2215661   9.9238854   9.9238854   9.9238854   9.9238854
   9.9238854   9.9238854  18.0058015  18.0058015
 SUMMED SPIN DENSITY           0.00000000
 TOTAL ATOMIC SPINS  :
   4.9411087  -4.9447410   0.0006399   0.0006399   0.0006399   0.0006399
   0.0006399   0.0006399  -0.0001036  -0.0001036
 TTTTTTTTTTTTTTTTTTTTTTTTTTTTTT MOQGAD      TELAPSE       67.56 TCPU       67.58
 TTTTTTTTTTTTTTTTTTTTTTTTTTTTTT SHELLX2     TELAPSE       74.91 TCPU       74.93
 TTTTTTTTTTTTTTTTTTTTTTTTTTTTTT MONMO3      TELAPSE       75.04 TCPU       75.06
 CYC   9 ETOT(AU) -4.095287388258E+03 DETOT -2.53E-05 tst  1.87E-06 PX  5.26E-04
 TTTTTTTTTTTTTTTTTTTTTTTTTTTTTT FDIK        TELAPSE       75.08 TCPU       75.10

    ALPHA      ELECTRONS
 INSULATING STATE - LEVEL SHIFTER    0.60 au
 TOP OF VALENCE BANDS -    BAND     71; K    1; EIG -1.0000000E+00 AU
 BOTTOM OF VIRTUAL BANDS - BAND     72; K    1; EIG  1.0000000E+00 AU

    BETA       ELECTRONS
 INSULATING STATE - LEVEL SHIFTER    0.60 au
 TOP OF VALENCE BANDS -    BAND     71; K    1; EIG -1.0000000E+00 AU
 BOTTOM OF VIRTUAL BANDS - BAND     72; K    1; EIG  1.0000000E+00 AU
 TTTTTTTTTTTTTTTTTTTTTTTTTTTTTT PDIG        TELAPSE       75.10 TCPU       75.12
 CHARGE NORMALIZATION FACTOR   1.00000000
 TOTAL ATOMIC CHARGES:
  23.2235986  23.2222616   9.9237545   9.9237545   9.9237545   9.9237545
   9.9237545   9.9237545  18.0058065  18.0058065
 SUMMED SPIN DENSITY           0.00000000
 TOTAL ATOMIC SPINS  :
   4.9409776  -4.9434877   0.0004477   0.0004477   0.0004477   0.0004477
   0.0004477   0.0004477  -0.0000879  -0.0000879
 TTTTTTTTTTTTTTTTTTTTTTTTTTTTTT MOQGAD      TELAPSE       75.14 TCPU       75.15
 TTTTTTTTTTTTTTTTTTTTTTTTTTTTTT SHELLX2     TELAPSE       82.45 TCPU       82.47
 TTTTTTTTTTTTTTTTTTTTTTTTTTTTTT MONMO3      TELAPSE       82.57 TCPU       82.60
 CYC  10 ETOT(AU) -4.095287402252E+03 DETOT -1.40E-05 tst  7.99E-07 PX  4.11E-04
 TTTTTTTTTTTTTTTTTTTTTTTTTTTTTT FDIK        TELAPSE       82.61 TCPU       82.64

    ALPHA      ELECTRONS
 INSULATING STATE - LEVEL SHIFTER    0.60 au
 TOP OF VALENCE BANDS -    BAND     71; K    1; EIG -1.0000000E+00 AU
 BOTTOM OF VIRTUAL BANDS - BAND     72; K    1; EIG  1.0000000E+00 AU

    BETA       ELECTRONS
 INSULATING STATE - LEVEL SHIFTER    0.60 au
 TOP OF VALENCE BANDS -    BAND     71; K    1; EIG -1.0000000E+00 AU
 BOTTOM OF VIRTUAL BANDS - BAND     72; K    1; EIG  1.0000000E+00 AU
 TTTTTTTTTTTTTTTTTTTTTTTTTTTTTT PDIG        TELAPSE       82.63 TCPU       82.65
 CHARGE NORMALIZATION FACTOR   1.00000000
 TOTAL ATOMIC CHARGES:
  23.2236423  23.2227041   9.9236725   9.9236725   9.9236725   9.9236725
   9.9236725   9.9236725  18.0058094  18.0058094
 SUMMED SPIN DENSITY           0.00000000
 TOTAL ATOMIC SPINS  :
   4.9408962  -4.9426678   0.0003199   0.0003199   0.0003199   0.0003199
   0.0003199   0.0003199  -0.0000739  -0.0000739
 TTTTTTTTTTTTTTTTTTTTTTTTTTTTTT MOQGAD      TELAPSE       82.67 TCPU       82.69
 TTTTTTTTTTTTTTTTTTTTTTTTTTTTTT SHELLX2     TELAPSE       90.02 TCPU       90.04
 TTTTTTTTTTTTTTTTTTTTTTTTTTTTTT MONMO3      TELAPSE       90.15 TCPU       90.18
 CYC  11 ETOT(AU) -4.095287410302E+03 DETOT -8.05E-06 tst  3.56E-07 PX  3.21E-04
 TTTTTTTTTTTTTTTTTTTTTTTTTTTTTT FDIK        TELAPSE       90.20 TCPU       90.22

    ALPHA      ELECTRONS
 INSULATING STATE - LEVEL SHIFTER    0.60 au
 TOP OF VALENCE BANDS -    BAND     71; K    1; EIG -1.0000000E+00 AU
 BOTTOM OF VIRTUAL BANDS - BAND     72; K    1; EIG  1.0000000E+00 AU

    BETA       ELECTRONS
 INSULATING STATE - LEVEL SHIFTER    0.60 au
 TOP OF VALENCE BANDS -    BAND     71; K    1; EIG -1.0000000E+00 AU
 BOTTOM OF VIRTUAL BANDS - BAND     72; K    1; EIG  1.0000000E+00 AU
 TTTTTTTTTTTTTTTTTTTTTTTTTTTTTT PDIG        TELAPSE       90.21 TCPU       90.24
 CHARGE NORMALIZATION FACTOR   1.00000000
 TOTAL ATOMIC CHARGES:
  23.2236628  23.2229903   9.9236208   9.9236208   9.9236208   9.9236208
   9.9236208   9.9236208  18.0058111  18.0058111
 SUMMED SPIN DENSITY           0.00000000
 TOTAL ATOMIC SPINS  :
   4.9408490  -4.9421231   0.0002328   0.0002328   0.0002328   0.0002328
   0.0002328   0.0002328  -0.0000614  -0.0000614
 TTTTTTTTTTTTTTTTTTTTTTTTTTTTTT MOQGAD      TELAPSE       90.25 TCPU       90.28
 TTTTTTTTTTTTTTTTTTTTTTTTTTTTTT SHELLX2     TELAPSE       97.52 TCPU       97.55
 TTTTTTTTTTTTTTTTTTTTTTTTTTTTTT MONMO3      TELAPSE       97.64 TCPU       97.68
 CYC  12 ETOT(AU) -4.095287415072E+03 DETOT -4.77E-06 tst  1.65E-07 PX  2.51E-04
 TTTTTTTTTTTTTTTTTTTTTTTTTTTTTT FDIK        TELAPSE       97.68 TCPU       97.72

    ALPHA      ELECTRONS
 INSULATING STATE - LEVEL SHIFTER    0.60 au
 TOP OF VALENCE BANDS -    BAND     71; K    1; EIG -1.0000000E+00 AU
 BOTTOM OF VIRTUAL BANDS - BAND     72; K    1; EIG  1.0000000E+00 AU

    BETA       ELECTRONS
 INSULATING STATE - LEVEL SHIFTER    0.60 au
 TOP OF VALENCE BANDS -    BAND     71; K    1; EIG -1.0000000E+00 AU
 BOTTOM OF VIRTUAL BANDS - BAND     72; K    1; EIG  1.0000000E+00 AU
 TTTTTTTTTTTTTTTTTTTTTTTTTTTTTT PDIG        TELAPSE       97.70 TCPU       97.73
 CHARGE NORMALIZATION FACTOR   1.00000000
 TOTAL ATOMIC CHARGES:
  23.2236700  23.2231787   9.9235879   9.9235879   9.9235879   9.9235879
   9.9235879   9.9235879  18.0058121  18.0058121
 SUMMED SPIN DENSITY           0.00000000
 TOTAL ATOMIC SPINS  :
   4.9408236  -4.9417569   0.0001724   0.0001724   0.0001724   0.0001724
   0.0001724   0.0001724  -0.0000507  -0.0000507
 TTTTTTTTTTTTTTTTTTTTTTTTTTTTTT MOQGAD      TELAPSE       97.74 TCPU       97.77
 TTTTTTTTTTTTTTTTTTTTTTTTTTTTTT SHELLX2     TELAPSE      104.97 TCPU      105.00
 TTTTTTTTTTTTTTTTTTTTTTTTTTTTTT MONMO3      TELAPSE      105.10 TCPU      105.13
 CYC  13 ETOT(AU) -4.095287417955E+03 DETOT -2.88E-06 tst  9.76E-08 PX  1.96E-04
 TTTTTTTTTTTTTTTTTTTTTTTTTTTTTT FDIK        TELAPSE      105.14 TCPU      105.17

    ALPHA      ELECTRONS
 INSULATING STATE - LEVEL SHIFTER    0.60 au
 TOP OF VALENCE BANDS -    BAND     71; K    1; EIG -1.0000000E+00 AU
 BOTTOM OF VIRTUAL BANDS - BAND     72; K    1; EIG  1.0000000E+00 AU

    BETA       ELECTRONS
 INSULATING STATE - LEVEL SHIFTER    0.60 au
 TOP OF VALENCE BANDS -    BAND     71; K    1; EIG -1.0000000E+00 AU
 BOTTOM OF VIRTUAL BANDS - BAND     72; K    1; EIG  1.0000000E+00 AU
 TTTTTTTTTTTTTTTTTTTTTTTTTTTTTT PDIG        TELAPSE      105.15 TCPU      105.19
 CHARGE NORMALIZATION FACTOR   1.00000000
 TOTAL ATOMIC CHARGES:
  23.2236696  23.2233049   9.9235667   9.9235667   9.9235667   9.9235667
   9.9235667   9.9235667  18.0058127  18.0058127
 SUMMED SPIN DENSITY           0.00000000
 TOTAL ATOMIC SPINS  :
   4.9408124  -4.9415066   0.0001296   0.0001296   0.0001296   0.0001296
   0.0001296   0.0001296  -0.0000418  -0.0000418
 TTTTTTTTTTTTTTTTTTTTTTTTTTTTTT MOQGAD      TELAPSE      105.19 TCPU      105.22
 TTTTTTTTTTTTTTTTTTTTTTTTTTTTTT SHELLX2     TELAPSE      112.42 TCPU      112.46
 TTTTTTTTTTTTTTTTTTTTTTTTTTTTTT MONMO3      TELAPSE      112.54 TCPU      112.59
 CYC  14 ETOT(AU) -4.095287419721E+03 DETOT -1.77E-06 tst  5.73E-08 PX  1.54E-04
 TTTTTTTTTTTTTTTTTTTTTTTTTTTTTT FDIK        TELAPSE      112.58 TCPU      112.63

    ALPHA      ELECTRONS
 INSULATING STATE - LEVEL SHIFTER    0.60 au
 TOP OF VALENCE BANDS -    BAND     71; K    1; EIG -1.0000000E+00 AU
 BOTTOM OF VIRTUAL BANDS - BAND     72; K    1; EIG  1.0000000E+00 AU

    BETA       ELECTRONS
 INSULATING STATE - LEVEL SHIFTER    0.60 au
 TOP OF VALENCE BANDS -    BAND     71; K    1; EIG -1.0000000E+00 AU
 BOTTOM OF VIRTUAL BANDS - BAND     72; K    1; EIG  1.0000000E+00 AU
 TTTTTTTTTTTTTTTTTTTTTTTTTTTTTT PDIG        TELAPSE      112.60 TCPU      112.64
 CHARGE NORMALIZATION FACTOR   1.00000000
 TOTAL ATOMIC CHARGES:
  23.2236655  23.2233908   9.9235529   9.9235529   9.9235529   9.9235529
   9.9235529   9.9235529  18.0058131  18.0058131
 SUMMED SPIN DENSITY           0.00000000
 TOTAL ATOMIC SPINS  :
   4.9408100  -4.9413332   0.0000986   0.0000986   0.0000986   0.0000986
   0.0000986   0.0000986  -0.0000342  -0.0000342
 TTTTTTTTTTTTTTTTTTTTTTTTTTTTTT MOQGAD      TELAPSE      112.64 TCPU      112.68
 TTTTTTTTTTTTTTTTTTTTTTTTTTTTTT SHELLX2     TELAPSE      119.92 TCPU      119.96
 TTTTTTTTTTTTTTTTTTTTTTTTTTTTTT MONMO3      TELAPSE      120.05 TCPU      120.10
 CYC  15 ETOT(AU) -4.095287420813E+03 DETOT -1.09E-06 tst  3.35E-08 PX  1.20E-04
 TTTTTTTTTTTTTTTTTTTTTTTTTTTTTT FDIK        TELAPSE      120.09 TCPU      120.14

    ALPHA      ELECTRONS
 INSULATING STATE - LEVEL SHIFTER    0.60 au
 TOP OF VALENCE BANDS -    BAND     71; K    1; EIG -1.0000000E+00 AU
 BOTTOM OF VIRTUAL BANDS - BAND     72; K    1; EIG  1.0000000E+00 AU

    BETA       ELECTRONS
 INSULATING STATE - LEVEL SHIFTER    0.60 au
 TOP OF VALENCE BANDS -    BAND     71; K    1; EIG -1.0000000E+00 AU
 BOTTOM OF VIRTUAL BANDS - BAND     72; K    1; EIG  1.0000000E+00 AU
 TTTTTTTTTTTTTTTTTTTTTTTTTTTTTT PDIG        TELAPSE      120.11 TCPU      120.16
 CHARGE NORMALIZATION FACTOR   1.00000000
 TOTAL ATOMIC CHARGES:
  23.2236597  23.2234505   9.9235439   9.9235439   9.9235439   9.9235439
   9.9235439   9.9235439  18.0058133  18.0058133
 SUMMED SPIN DENSITY           0.00000000
 TOTAL ATOMIC SPINS  :
   4.9408126  -4.9412114   0.0000757   0.0000757   0.0000757   0.0000757
   0.0000757   0.0000757  -0.0000279  -0.0000279
 TTTTTTTTTTTTTTTTTTTTTTTTTTTTTT MOQGAD      TELAPSE      120.15 TCPU      120.19
 TTTTTTTTTTTTTTTTTTTTTTTTTTTTTT SHELLX2     TELAPSE      127.61 TCPU      127.66
 TTTTTTTTTTTTTTTTTTTTTTTTTTTTTT MONMO3      TELAPSE      127.74 TCPU      127.79
 CYC  16 ETOT(AU) -4.095287421494E+03 DETOT -6.81E-07 tst  1.96E-08 PX  9.46E-05
 TTTTTTTTTTTTTTTTTTTTTTTTTTTTTT FDIK        TELAPSE      127.78 TCPU      127.83

    ALPHA      ELECTRONS
 INSULATING STATE - LEVEL SHIFTER    0.60 au
 TOP OF VALENCE BANDS -    BAND     71; K    1; EIG -1.0000000E+00 AU
 BOTTOM OF VIRTUAL BANDS - BAND     72; K    1; EIG  1.0000000E+00 AU

    BETA       ELECTRONS
 INSULATING STATE - LEVEL SHIFTER    0.60 au
 TOP OF VALENCE BANDS -    BAND     71; K    1; EIG -1.0000000E+00 AU
 BOTTOM OF VIRTUAL BANDS - BAND     72; K    1; EIG  1.0000000E+00 AU
 TTTTTTTTTTTTTTTTTTTTTTTTTTTTTT PDIG        TELAPSE      127.79 TCPU      127.84
 CHARGE NORMALIZATION FACTOR   1.00000000
 TOTAL ATOMIC CHARGES:
  23.2236533  23.2234926   9.9235379   9.9235379   9.9235379   9.9235379
   9.9235379   9.9235379  18.0058134  18.0058134
 SUMMED SPIN DENSITY           0.00000000
 TOTAL ATOMIC SPINS  :
   4.9408178  -4.9411245   0.0000587   0.0000587   0.0000587   0.0000587
   0.0000587   0.0000587  -0.0000227  -0.0000227
 TTTTTTTTTTTTTTTTTTTTTTTTTTTTTT MOQGAD      TELAPSE      127.83 TCPU      127.88
 TTTTTTTTTTTTTTTTTTTTTTTTTTTTTT SHELLX2     TELAPSE      135.03 TCPU      135.08
 TTTTTTTTTTTTTTTTTTTTTTTTTTTTTT MONMO3      TELAPSE      135.16 TCPU      135.21
 CYC  17 ETOT(AU) -4.095287421920E+03 DETOT -4.26E-07 tst  1.15E-08 PX  7.43E-05
 TTTTTTTTTTTTTTTTTTTTTTTTTTTTTT FDIK        TELAPSE      135.20 TCPU      135.25

    ALPHA      ELECTRONS
 INSULATING STATE - LEVEL SHIFTER    0.60 au
 TOP OF VALENCE BANDS -    BAND     71; K    1; EIG -1.0000000E+00 AU
 BOTTOM OF VIRTUAL BANDS - BAND     72; K    1; EIG  1.0000000E+00 AU

    BETA       ELECTRONS
 INSULATING STATE - LEVEL SHIFTER    0.60 au
 TOP OF VALENCE BANDS -    BAND     71; K    1; EIG -1.0000000E+00 AU
 BOTTOM OF VIRTUAL BANDS - BAND     72; K    1; EIG  1.0000000E+00 AU
 TTTTTTTTTTTTTTTTTTTTTTTTTTTTTT PDIG        TELAPSE      135.21 TCPU      135.27
 CHARGE NORMALIZATION FACTOR   1.00000000
 TOTAL ATOMIC CHARGES:
  23.2236472  23.2235227   9.9235338   9.9235338   9.9235338   9.9235338
   9.9235338   9.9235338  18.0058135  18.0058135
 SUMMED SPIN DENSITY           0.00000000
 TOTAL ATOMIC SPINS  :
   4.9408242  -4.9410617   0.0000457   0.0000457   0.0000457   0.0000457
   0.0000457   0.0000457  -0.0000184  -0.0000184
 TTTTTTTTTTTTTTTTTTTTTTTTTTTTTT MOQGAD      TELAPSE      135.25 TCPU      135.30
 TTTTTTTTTTTTTTTTTTTTTTTTTTTTTT SHELLX2     TELAPSE      142.45 TCPU      142.51
 TTTTTTTTTTTTTTTTTTTTTTTTTTTTTT MONMO3      TELAPSE      142.58 TCPU      142.64
 CYC  18 ETOT(AU) -4.095287422189E+03 DETOT -2.69E-07 tst  6.72E-09 PX  5.85E-05
 TTTTTTTTTTTTTTTTTTTTTTTTTTTTTT FDIK        TELAPSE      142.62 TCPU      142.68

    ALPHA      ELECTRONS
 INSULATING STATE - LEVEL SHIFTER    0.60 au
 TOP OF VALENCE BANDS -    BAND     71; K    1; EIG -1.0000000E+00 AU
 BOTTOM OF VIRTUAL BANDS - BAND     72; K    1; EIG  1.0000000E+00 AU

    BETA       ELECTRONS
 INSULATING STATE - LEVEL SHIFTER    0.60 au
 TOP OF VALENCE BANDS -    BAND     71; K    1; EIG -1.0000000E+00 AU
 BOTTOM OF VIRTUAL BANDS - BAND     72; K    1; EIG  1.0000000E+00 AU
 TTTTTTTTTTTTTTTTTTTTTTTTTTTTTT PDIG        TELAPSE      142.64 TCPU      142.69
 CHARGE NORMALIZATION FACTOR   1.00000000
 TOTAL ATOMIC CHARGES:
  23.2236416  23.2235446   9.9235311   9.9235311   9.9235311   9.9235311
   9.9235311   9.9235311  18.0058136  18.0058136
 SUMMED SPIN DENSITY           0.00000000
 TOTAL ATOMIC SPINS  :
   4.9408308  -4.9410158   0.0000358   0.0000358   0.0000358   0.0000358
   0.0000358   0.0000358  -0.0000149  -0.0000149
 TTTTTTTTTTTTTTTTTTTTTTTTTTTTTT MOQGAD      TELAPSE      142.67 TCPU      142.73
 TTTTTTTTTTTTTTTTTTTTTTTTTTTTTT SHELLX2     TELAPSE      149.88 TCPU      149.94
 TTTTTTTTTTTTTTTTTTTTTTTTTTTTTT MONMO3      TELAPSE      150.01 TCPU      150.07
 CYC  19 ETOT(AU) -4.095287422359E+03 DETOT -1.70E-07 tst  4.09E-09 PX  4.61E-05
 TTTTTTTTTTTTTTTTTTTTTTTTTTTTTT FDIK        TELAPSE      150.04 TCPU      150.11

    ALPHA      ELECTRONS
 INSULATING STATE - LEVEL SHIFTER    0.60 au
 TOP OF VALENCE BANDS -    BAND     71; K    1; EIG -1.0000000E+00 AU
 BOTTOM OF VIRTUAL BANDS - BAND     72; K    1; EIG  1.0000000E+00 AU

    BETA       ELECTRONS
 INSULATING STATE - LEVEL SHIFTER    0.60 au
 TOP OF VALENCE BANDS -    BAND     71; K    1; EIG -1.0000000E+00 AU
 BOTTOM OF VIRTUAL BANDS - BAND     72; K    1; EIG  1.0000000E+00 AU
 TTTTTTTTTTTTTTTTTTTTTTTTTTTTTT PDIG        TELAPSE      150.06 TCPU      150.12
 CHARGE NORMALIZATION FACTOR   1.00000000
 TOTAL ATOMIC CHARGES:
  23.2236366  23.2235607   9.9235292   9.9235292   9.9235292   9.9235292
   9.9235292   9.9235292  18.0058136  18.0058136
 SUMMED SPIN DENSITY           0.00000000
 TOTAL ATOMIC SPINS  :
   4.9408371  -4.9409820   0.0000282   0.0000282   0.0000282   0.0000282
   0.0000282   0.0000282  -0.0000120  -0.0000120
 TTTTTTTTTTTTTTTTTTTTTTTTTTTTTT MOQGAD      TELAPSE      150.10 TCPU      150.16
 TTTTTTTTTTTTTTTTTTTTTTTTTTTTTT SHELLX2     TELAPSE      157.39 TCPU      157.46
 TTTTTTTTTTTTTTTTTTTTTTTTTTTTTT MONMO3      TELAPSE      157.53 TCPU      157.59
 CYC  20 ETOT(AU) -4.095287422467E+03 DETOT -1.08E-07 tst  2.56E-09 PX  3.63E-05
 TTTTTTTTTTTTTTTTTTTTTTTTTTTTTT FDIK        TELAPSE      157.57 TCPU      157.63

    ALPHA      ELECTRONS
 INSULATING STATE - LEVEL SHIFTER    0.60 au
 TOP OF VALENCE BANDS -    BAND     71; K    1; EIG -1.0000000E+00 AU
 BOTTOM OF VIRTUAL BANDS - BAND     72; K    1; EIG  1.0000000E+00 AU

    BETA       ELECTRONS
 INSULATING STATE - LEVEL SHIFTER    0.60 au
 TOP OF VALENCE BANDS -    BAND     71; K    1; EIG -1.0000000E+00 AU
 BOTTOM OF VIRTUAL BANDS - BAND     72; K    1; EIG  1.0000000E+00 AU
 TTTTTTTTTTTTTTTTTTTTTTTTTTTTTT PDIG        TELAPSE      157.58 TCPU      157.65
 CHARGE NORMALIZATION FACTOR   1.00000000
 TOTAL ATOMIC CHARGES:
  23.2236323  23.2235727   9.9235280   9.9235280   9.9235280   9.9235280
   9.9235280   9.9235280  18.0058137  18.0058137
 SUMMED SPIN DENSITY           0.00000000
 TOTAL ATOMIC SPINS  :
   4.9408430  -4.9409567   0.0000222   0.0000222   0.0000222   0.0000222
   0.0000222   0.0000222  -0.0000097  -0.0000097
 TTTTTTTTTTTTTTTTTTTTTTTTTTTTTT MOQGAD      TELAPSE      157.62 TCPU      157.69
 TTTTTTTTTTTTTTTTTTTTTTTTTTTTTT SHELLX2     TELAPSE      164.93 TCPU      165.00
 TTTTTTTTTTTTTTTTTTTTTTTTTTTTTT MONMO3      TELAPSE      165.06 TCPU      165.13
 CYC  21 ETOT(AU) -4.095287422535E+03 DETOT -6.81E-08 tst  1.60E-09 PX  2.86E-05
 TTTTTTTTTTTTTTTTTTTTTTTTTTTTTT FDIK        TELAPSE      165.10 TCPU      165.17

    ALPHA      ELECTRONS
 INSULATING STATE - LEVEL SHIFTER    0.60 au
 TOP OF VALENCE BANDS -    BAND     71; K    1; EIG -1.0000000E+00 AU
 BOTTOM OF VIRTUAL BANDS - BAND     72; K    1; EIG  1.0000000E+00 AU

    BETA       ELECTRONS
 INSULATING STATE - LEVEL SHIFTER    0.60 au
 TOP OF VALENCE BANDS -    BAND     71; K    1; EIG -1.0000000E+00 AU
 BOTTOM OF VIRTUAL BANDS - BAND     72; K    1; EIG  1.0000000E+00 AU
 TTTTTTTTTTTTTTTTTTTTTTTTTTTTTT PDIG        TELAPSE      165.11 TCPU      165.18
 CHARGE NORMALIZATION FACTOR   1.00000000
 TOTAL ATOMIC CHARGES:
  23.2236287  23.2235817   9.9235270   9.9235270   9.9235270   9.9235270
   9.9235270   9.9235270  18.0058137  18.0058137
 SUMMED SPIN DENSITY           0.00000000
 TOTAL ATOMIC SPINS  :
   4.9408482  -4.9409378   0.0000175   0.0000175   0.0000175   0.0000175
   0.0000175   0.0000175  -0.0000078  -0.0000078
 TTTTTTTTTTTTTTTTTTTTTTTTTTTTTT MOQGAD      TELAPSE      165.15 TCPU      165.22
 TTTTTTTTTTTTTTTTTTTTTTTTTTTTTT SHELLX2     TELAPSE      172.35 TCPU      172.43
 +++ ENERGIES IN A.U. +++
 ::: EXT EL-POLE                                  -2.4542053817160E+03
 ::: EXT EL-SPHEROPOLE                             2.3197621199062E+01
 ::: BIELET ZONE E-E                               3.3935583941978E+03
 ::: TOTAL E-E                                     9.6255063368087E+02
 ::: TOTAL E-N + N-E                              -8.4875044841831E+03
 ::: TOTAL N-N                                    -6.6420693306838E+02
 ::: KINETIC ENERGY                                4.0938733609920E+03
 ::: TOTAL   ENERGY                               -4.0952874225786E+03
 ::: VIRIAL COEFFICIENT                            9.9982732521390E-01
 TTTTTTTTTTTTTTTTTTTTTTTTTTTTTT MONMO3      TELAPSE      172.48 TCPU      172.56
 CYC  22 ETOT(AU) -4.095287422579E+03 DETOT -4.40E-08 tst  9.99E-10 PX  2.86E-05

 == SCF ENDED - CONVERGENCE ON ENERGY      E(AU) -4.0952874225786E+03 CYCLES  22

 TOTAL ENERGY(HF)(AU)(  22) -4.0952874225786E+03 DE-4.4E-08 tst 1.0E-09 PX 2.9E-05

 NEIGHBORS OF THE NON-EQUIVALENT ATOMS

 N = NUMBER OF NEIGHBORS AT DISTANCE R
    ATOM  N     R/ANG      R/AU   NEIGHBORS (ATOM LABELS AND CELL INDICES)
   1 MN   6     2.0950     3.9590    3 F    0 0 0    4 F    0 0 0    5 F    0 0 0
                                     6 F    0 0 0    7 F    0 0 0    8 F    0 0 0
   1 MN   8     3.6286     6.8571    9 K    0 0 0    9 K   -1 0 0    9 K    0 1 0
                                     9 K    0 0 1   10 K    0 0 0   10 K    1 0 0
                                    10 K    0-1 0   10 K    0 0-1
   1 MN   6     4.1900     7.9180    2 MN   0 0 0    2 MN  -1-1 0    2 MN  -1 0-1
                                     2 MN   0-1 0    2 MN   0 0-1    2 MN  -1-1-1
   1 MN  24     4.6846     8.8525    3 F   -1 0-1    3 F   -1 0 0    3 F    0 1 0
                                     3 F    0 1-1    4 F    1 0 1    4 F    1 0 0
                                     4 F    0-1 0    4 F    0-1 1    5 F    0-1 1
                                     5 F    0 0 1    5 F   -1 0 0    5 F   -1-1 0
                                     6 F    0 1-1    6 F    0 0-1    6 F    1 0 0
                                     6 F    1 1 0    7 F    1 1 0    7 F    0 1 0
                                     7 F    0 0 1    7 F    1 0 1    8 F   -1-1 0
                                     8 F    0-1 0    8 F    0 0-1    8 F   -1 0-1
   1 MN  12     5.9256    11.1977    1 MN  -1-1 0    1 MN   1 1 0    1 MN  -1 0-1
                                     1 MN   1 0 1    1 MN  -1 0 0    1 MN   1 0 0
                                     1 MN   0-1 0    1 MN   0 1 0    1 MN   0-1 1
                                     1 MN   0 1-1    1 MN   0 0-1    1 MN   0 0 1
   1 MN  30     6.2850    11.8769    3 F    1 1 0    3 F   -1-1 0    3 F    0 0 1
                                     3 F    0 0-1    3 F   -1 1-1    4 F   -1-1 0
                                     4 F    1 1 0    4 F    0 0-1    4 F    0 0 1
                                     4 F    1-1 1    5 F   -1 0-1    5 F    1 0 1
                                     5 F    0 1 0    5 F    0-1 0    5 F   -1-1 1
                                     6 F    1 0 1    6 F   -1 0-1    6 F    0-1 0
                                     6 F    0 1 0    6 F    1 1-1    7 F    0-1 1
                                     7 F    0 1-1    7 F   -1 0 0    7 F    1 0 0
                                     7 F    1 1 1    8 F    0 1-1    8 F    0-1 1
                                     8 F    1 0 0    8 F   -1 0 0    8 F   -1-1-1

   2 MN   6     2.0950     3.9590    3 F    0 1 0    4 F    1 0 1    5 F    0 0 1
                                     6 F    1 1 0    7 F    1 1 1    8 F    0 0 0
   2 MN   8     3.6286     6.8571    9 K    0 1 0    9 K    0 0 1    9 K    1 1 1
                                     9 K    0 1 1   10 K    1 1 0   10 K    1 0 1
                                    10 K    0 0 0   10 K    1 0 0
   2 MN   6     4.1900     7.9180    1 MN   0 0 0    1 MN   1 1 0    1 MN   1 0 1
                                     1 MN   0 1 0    1 MN   0 0 1    1 MN   1 1 1
   2 MN  24     4.6846     8.8525    3 F    0 0 0    3 F    1 1 0    3 F    0 0 1
                                     3 F    1 1 1    4 F    0 0 0    4 F    0 0 1
                                     4 F    1 1 0    4 F    1 1 1    5 F    1 0 1
                                     5 F    0 0 0    5 F    1 1 1    5 F    0 1 0
                                     6 F    0 1 0    6 F    0 0 0    6 F    1 1 1
                                     6 F    1 0 1    7 F    1 1 0    7 F    1 0 1
                                     7 F    0 1 0    7 F    0 0 1    8 F    1 1 0
                                     8 F    0 1 0    8 F    1 0 1    8 F    0 0 1
   2 MN  12     5.9256    11.1977    2 MN  -1-1 0    2 MN   1 1 0    2 MN  -1 0-1
                                     2 MN   1 0 1    2 MN  -1 0 0    2 MN   1 0 0
                                     2 MN   0-1 0    2 MN   0 1 0    2 MN   0-1 1
                                     2 MN   0 1-1    2 MN   0 0-1    2 MN   0 0 1
   2 MN  30     6.2850    11.8769    3 F    1 0 1    3 F   -1 0 0    3 F    0 1-1
                                     3 F    1 2 0    3 F    0 1 1    4 F    0 1 0
                                     4 F    1 0 0    4 F    0-1 1    4 F    1 0 2
                                     4 F    2 1 1    5 F    1 1 0    5 F    1 0 2
                                     5 F    0-1 1    5 F   -1 0 0    5 F    0 1 1
                                     6 F    0 0 1    6 F    1 2 0    6 F    0 1-1
                                     6 F    1 0 0    6 F    2 1 1    7 F    0 0 0
                                     7 F    1 2 0    7 F    2 1 1    7 F    1 0 2
                                     7 F    0 1 1    8 F    1 1 1    8 F    1 0 0
                                     8 F    0 1-1    8 F   -1 0 0    8 F    0-1 1

   3 F    2     2.0950     3.9590    1 MN   0 0 0    2 MN   0-1 0
   3 F    8     2.9628     5.5988    5 F    0 0 0    5 F    0-1 1    6 F    0 0 0
                                     6 F    1 0 0    7 F    0 0 0    7 F    1 0 1
                                     8 F    0 0 0    8 F    0-1 0
   3 F    4     2.9628     5.5988    9 K    0 0 0    9 K    0 0 1   10 K    1 0 0
                                    10 K    0-1 0
   3 F    6     4.1900     7.9180    4 F    0 0 0    4 F    1 0 1    4 F    1 0 0
                                     4 F    0-1 0    4 F    0-1 1    4 F    1-1 1
   3 F    8     4.6846     8.8525    1 MN   1 0 1    1 MN   1 0 0    1 MN   0-1 0
                                     1 MN   0-1 1    2 MN   0 0 0    2 MN  -1-1 0
                                     2 MN   0 0-1    2 MN  -1-1-1
   3 F   16     5.1317     9.6975    5 F   -1-1 0    5 F    1 0 1    5 F    0-1 0
                                     5 F    0 0 1    6 F    1 1 0    6 F    0-1 0
                                     6 F    1 0 1    6 F    0 0-1    7 F    0-1 1
                                     7 F    1 1 0    7 F    0 0 1    7 F    1 0 0
                                     8 F    0-1 1    8 F    0 0-1    8 F   -1-1 0
                                     8 F    1 0 0

   9 K   12     2.9628     5.5988    3 F    0 0 0    3 F    0 0-1    4 F    1 0 0
                                     4 F    0-1 0    5 F    0 0 0    5 F    0-1 0
                                     6 F    1 0 0    6 F    0 0-1    7 F    0 0 0
                                     7 F    1 0 0    8 F    0-1 0    8 F    0 0-1
   9 K    8     3.6286     6.8571    1 MN   0 0 0    1 MN   1 0 0    1 MN   0-1 0
                                     1 MN   0 0-1    2 MN   0-1 0    2 MN   0 0-1
                                     2 MN  -1-1-1    2 MN   0-1-1
   9 K    6     4.1900     7.9180   10 K    1 0 0   10 K    0-1 0   10 K    0 0-1
                                    10 K    1 0-1   10 K    1-1 0   10 K    0-1-1
   9 K   24     5.1317     9.6975    3 F   -1 0-1    3 F    1 0 0    3 F    0-1 0
                                     3 F    0 1-1    4 F    1-1 0    4 F    0 0 0
                                     4 F    0 0-1    4 F    1-1 1    5 F    0-1 1
                                     5 F    0 0-1    5 F    1 0 0    5 F   -1-1 0
                                     6 F    1 1-1    6 F    0-1 0    6 F    0 0 0
                                     6 F    1 0-1    7 F    1 1 0    7 F    0-1 0
                                     7 F    0 0-1    7 F    1 0 1    8 F    0-1-1
                                     8 F    0 0 0    8 F    1 0 0    8 F   -1-1-1
   9 K   12     5.9256    11.1977    9 K   -1-1 0    9 K    1 1 0    9 K   -1 0-1
                                     9 K    1 0 1    9 K   -1 0 0    9 K    1 0 0
                                     9 K    0-1 0    9 K    0 1 0    9 K    0-1 1
                                     9 K    0 1-1    9 K    0 0-1    9 K    0 0 1
   9 K   24     6.6250    12.5194    3 F   -1-1 0    3 F    1 1 0    3 F   -1-1-1
                                     3 F    1 1-1    4 F    1 0-1    4 F    1 0 1
                                     4 F    0-1-1    4 F    0-1 1    5 F    1 0 1
                                     5 F   -1 0-1    5 F    1-1 1    5 F   -1-1-1
                                     6 F    1 1 0    6 F    1-1 0    6 F    0 1-1
                                     6 F    0-1-1    7 F    0 1-1    7 F    0-1 1
                                     7 F    1 1-1    7 F    1-1 1    8 F    1-1 0
                                     8 F   -1-1 0    8 F    1 0-1    8 F   -1 0-1

 TTTTTTTTTTTTTTTTTTTTTTTTTTTTTT AFTER FIRST TELAPSE      172.49 TCPU      172.56
 MMMMMMMMMMMMMMMMMMMMMMMMMMMMMMMMMMMMMMMMMMMMMMMMMMMMMMMMMMMMMMMMMMMMMMMMMMMMMMM
     ALPHA+BETA ELECTRONS
 MULLIKEN POPULATION ANALYSIS - NO. OF ELECTRONS  142.000000

  ATOM    Z CHARGE  A.O. POPULATION

   1 MN  25 23.224  2.000  1.900  2.061  2.061  2.061  0.363  0.598  0.598
                    0.598  1.285  1.003  1.003  1.003  0.466  0.346  0.346
                    0.346  0.929  0.889  0.889  0.929  0.889  0.140  0.127
                    0.127  0.140  0.127
   2 MN  25 23.224  2.000  1.900  2.061  2.061  2.061  0.363  0.598  0.598
                    0.598  1.285  1.003  1.003  1.003  0.466  0.346  0.346
                    0.346  0.929  0.889  0.889  0.929  0.889  0.140  0.127
                    0.127  0.140  0.127
   3 F    9  9.924  1.999  0.814  1.002  1.042  1.042  0.994  0.690  0.673
                    0.673  0.184  0.267  0.272  0.272
   4 F    9  9.924  1.999  0.814  1.002  1.042  1.042  0.994  0.690  0.673
                    0.673  0.184  0.267  0.272  0.272
   5 F    9  9.924  1.999  0.814  1.042  1.002  1.042  0.994  0.673  0.690
                    0.673  0.184  0.272  0.267  0.272
   6 F    9  9.924  1.999  0.814  1.042  1.002  1.042  0.994  0.673  0.690
                    0.673  0.184  0.272  0.267  0.272
   7 F    9  9.924  1.999  0.814  1.042  1.042  1.002  0.994  0.673  0.673
                    0.690  0.184  0.272  0.272  0.267
   8 F    9  9.924  1.999  0.814  1.042  1.042  1.002  0.994  0.673  0.673
                    0.690  0.184  0.272  0.272  0.267
   9 K   19 18.006  2.000  1.986  2.031  2.031  2.031  0.798  1.054  1.054
                    1.054  0.937  0.564  0.564  0.564  0.287  0.351  0.351
                    0.351
  10 K   19 18.006  2.000  1.986  2.031  2.031  2.031  0.798  1.054  1.054
                    1.054  0.937  0.564  0.564  0.564  0.287  0.351  0.351
                    0.351

  ATOM    Z CHARGE  SHELL POPULATION

   1 MN  25 23.224  2.000  8.082  2.157  4.294  1.504  4.525  0.662
   2 MN  25 23.224  2.000  8.082  2.157  4.294  1.504  4.525  0.662
   3 F    9  9.924  1.999  3.900  3.031  0.993
   4 F    9  9.924  1.999  3.900  3.031  0.993
   5 F    9  9.924  1.999  3.900  3.031  0.993
   6 F    9  9.924  1.999  3.900  3.031  0.993
   7 F    9  9.924  1.999  3.900  3.031  0.993
   8 F    9  9.924  1.999  3.900  3.031  0.993
   9 K   19 18.006  2.000  8.078  3.958  2.629  1.341
  10 K   19 18.006  2.000  8.078  3.958  2.629  1.341

 OVERLAP POPULATION CONDENSED TO ATOMS FOR FIRST   6 NEIGHBORS

 ATOM A   1 MN   ATOM B     CELL      R(AB)/AU R(AB)/ANG    OVPOP(AB)
                  3 F    (  0  0  0)     3.959     2.095    -0.010
                  9 K    (  0  0  0)     6.857     3.629     0.000
                  2 MN   (  0  0  0)     7.918     4.190     0.000
                  3 F    ( -1  0 -1)     8.853     4.685     0.000
                  1 MN   ( -1 -1  0)    11.198     5.926     0.000
                  3 F    (  1  1  0)    11.877     6.285     0.000

 ATOM A   2 MN   ATOM B     CELL      R(AB)/AU R(AB)/ANG    OVPOP(AB)
                  3 F    (  0  1  0)     3.959     2.095    -0.010
                  9 K    (  0  1  0)     6.857     3.629     0.000
                  1 MN   (  0  0  0)     7.918     4.190     0.000
                  3 F    (  0  0  0)     8.853     4.685     0.000
                  2 MN   ( -1 -1  0)    11.198     5.926     0.000
                  3 F    (  1  0  1)    11.877     6.285     0.000

 ATOM A   3 F    ATOM B     CELL      R(AB)/AU R(AB)/ANG    OVPOP(AB)
                  1 MN   (  0  0  0)     3.959     2.095    -0.010
                  5 F    (  0  0  0)     5.599     2.963     0.001
                  9 K    (  0  0  0)     5.599     2.963    -0.001
                  4 F    (  0  0  0)     7.918     4.190     0.000
                  1 MN   (  1  0  1)     8.853     4.685     0.000
                  5 F    ( -1 -1  0)     9.697     5.132     0.000

 ATOM A   9 K    ATOM B     CELL      R(AB)/AU R(AB)/ANG    OVPOP(AB)
                  3 F    (  0  0  0)     5.599     2.963    -0.001
                  1 MN   (  0  0  0)     6.857     3.629     0.000
                 10 K    (  1  0  0)     7.918     4.190     0.000
                  3 F    ( -1  0 -1)     9.697     5.132     0.000
                  9 K    ( -1 -1  0)    11.198     5.926     0.000
                  3 F    ( -1 -1  0)    12.519     6.625     0.000
 TTTTTTTTTTTTTTTTTTTTTTTTTTTTTT AFTER FIRST TELAPSE      172.49 TCPU      172.56
 MMMMMMMMMMMMMMMMMMMMMMMMMMMMMMMMMMMMMMMMMMMMMMMMMMMMMMMMMMMMMMMMMMMMMMMMMMMMMMM
     ALPHA-BETA ELECTRONS
 MULLIKEN POPULATION ANALYSIS - NO. OF ELECTRONS    0.000000

  ATOM    Z CHARGE  A.O. POPULATION

   1 MN  25  4.941  0.000  0.003 -0.002 -0.002 -0.002 -0.002  0.007  0.007
                    0.007  0.011  0.016  0.016  0.016 -0.008 -0.018 -0.018
                   -0.018  0.907  0.885  0.885  0.907  0.885  0.068  0.108
                    0.108  0.068  0.108
   2 MN  25 -4.941  0.000 -0.003  0.002  0.002  0.002  0.002 -0.007 -0.007
                   -0.007 -0.011 -0.016 -0.016 -0.016  0.008  0.018  0.018
                    0.018 -0.907 -0.885 -0.885 -0.907 -0.885 -0.069 -0.108
                   -0.108 -0.069 -0.108
   3 F    9  0.000  0.000  0.000  0.000  0.000  0.000  0.000  0.000  0.000
                    0.000  0.000  0.000  0.000  0.000
   4 F    9  0.000  0.000  0.000  0.000  0.000  0.000  0.000  0.000  0.000
                    0.000  0.000  0.000  0.000  0.000
   5 F    9  0.000  0.000  0.000  0.000  0.000  0.000  0.000  0.000  0.000
                    0.000  0.000  0.000  0.000  0.000
   6 F    9  0.000  0.000  0.000  0.000  0.000  0.000  0.000  0.000  0.000
                    0.000  0.000  0.000  0.000  0.000
   7 F    9  0.000  0.000  0.000  0.000  0.000  0.000  0.000  0.000  0.000
                    0.000  0.000  0.000  0.000  0.000
   8 F    9  0.000  0.000  0.000  0.000  0.000  0.000  0.000  0.000  0.000
                    0.000  0.000  0.000  0.000  0.000
   9 K   19  0.000  0.000  0.000  0.000  0.000  0.000  0.000  0.000  0.000
                    0.000  0.000  0.000  0.000  0.000  0.000  0.000  0.000
                    0.000
  10 K   19  0.000  0.000  0.000  0.000  0.000  0.000  0.000  0.000  0.000
                    0.000  0.000  0.000  0.000  0.000  0.000  0.000  0.000
                    0.000

  ATOM    Z CHARGE  SHELL POPULATION

   1 MN  25  4.941  0.000 -0.003  0.017  0.058 -0.062  4.470  0.461
   2 MN  25 -4.941  0.000  0.003 -0.017 -0.058  0.062 -4.470 -0.461
   3 F    9  0.000  0.000  0.000  0.000  0.000
   4 F    9  0.000  0.000  0.000  0.000  0.000
   5 F    9  0.000  0.000  0.000  0.000  0.000
   6 F    9  0.000  0.000  0.000  0.000  0.000
   7 F    9  0.000  0.000  0.000  0.000  0.000
   8 F    9  0.000  0.000  0.000  0.000  0.000
   9 K   19  0.000  0.000  0.000  0.000  0.000  0.000
  10 K   19  0.000  0.000  0.000  0.000  0.000  0.000

 OVERLAP POPULATION CONDENSED TO ATOMS FOR FIRST   6 NEIGHBORS

 ATOM A   1 MN   ATOM B     CELL      R(AB)/AU R(AB)/ANG    OVPOP(AB)
                  3 F    (  0  0  0)     3.959     2.095    -0.033
                  9 K    (  0  0  0)     6.857     3.629     0.000
                  2 MN   (  0  0  0)     7.918     4.190     0.000
                  3 F    ( -1  0 -1)     8.853     4.685     0.000
                  1 MN   ( -1 -1  0)    11.198     5.926     0.000
                  3 F    (  1  1  0)    11.877     6.285     0.000

 ATOM A   2 MN   ATOM B     CELL      R(AB)/AU R(AB)/ANG    OVPOP(AB)
                  3 F    (  0  1  0)     3.959     2.095     0.033
                  9 K    (  0  1  0)     6.857     3.629     0.000
                  1 MN   (  0  0  0)     7.918     4.190     0.000
                  3 F    (  0  0  0)     8.853     4.685     0.000
                  2 MN   ( -1 -1  0)    11.198     5.926     0.000
                  3 F    (  1  0  1)    11.877     6.285     0.000

 ATOM A   3 F    ATOM B     CELL      R(AB)/AU R(AB)/ANG    OVPOP(AB)
                  1 MN   (  0  0  0)     3.959     2.095    -0.033
                  5 F    (  0  0  0)     5.599     2.963    -0.001
                  9 K    (  0  0  0)     5.599     2.963     0.000
                  4 F    (  0  0  0)     7.918     4.190     0.000
                  1 MN   (  1  0  1)     8.853     4.685     0.000
                  5 F    ( -1 -1  0)     9.697     5.132     0.000

 ATOM A   9 K    ATOM B     CELL      R(AB)/AU R(AB)/ANG    OVPOP(AB)
                  3 F    (  0  0  0)     5.599     2.963     0.000
                  1 MN   (  0  0  0)     6.857     3.629     0.000
                 10 K    (  1  0  0)     7.918     4.190     0.000
                  3 F    ( -1  0 -1)     9.697     5.132     0.000
                  9 K    ( -1 -1  0)    11.198     5.926     0.000
                  3 F    ( -1 -1  0)    12.519     6.625     0.000
 EIGENVECTORS IN FORTRAN UNIT  8
 TTTTTTTTTTTTTTTTTTTTTTTTTTTTTT END         TELAPSE      172.51 TCPU      172.58
 EEEEEEEEEE TERMINATION  DATE 09 12 2014 TIME 09:54:20.8
