
         
 *******************************************************************************
 *                                                                             *
 *                               CRYSTAL14                                     *
 *                      public : 1.0.2 - Feb 23rd, 2013                        *
 *                       HTTP://WWW.CRYSTAL.UNITO.IT                           *
 *                                                                             *
 *                              MAIN AUTHORS                                   *
 *                                                                             *
 *  R. DOVESI(1,11), V.R. SAUNDERS(2), C. ROETTI(1,11), R. ORLANDO(1,11),      *
 *  C.M. ZICOVICH-WILSON(1,3), F. PASCALE(4), B. CIVALLERI(1,11),              *
 *  K. DOLL(5), N.M. HARRISON(2,6), I. J. BUSH(7), Ph. D'ARCO(8),              *
 *  M. LLUNELL(9), M. CAUSA'(10), Y. NOEL(8)                                   *
 *                                                                             *
 *        CONTRIBUTIONS TO THE CURRENT RELEASE HAVE BEEN GIVEN BY              *
 *                                                                             *
 *  L. MASCHIO(1,11), S. CASASSA(1,11), A. ERBA(1,11), M. FERRABONE(1,11),     *
 *  M. DE LA PIERRE(1,11), M. FERRERO(1,11), V. LACIVITA(1,11),                *
 *  J. BAIMA(1,11), E. ALBANESE(1,11), M.F. PEINTINGER(12), R. BAST(13),       *
 *  M. RERAT(14), B. KIRTMAN(15), R. DEMICHELIS(1,16)                          *
 *                                                                             *
 * (1) THEORETICAL CHEMISTRY GROUP - UNIVERSITA' DI TORINO - TORINO (ITALY)    *
 *     http://www.crystal.unito.it                                             *
 * (2) COMPUTATIONAL SCIENCE & ENGINEERING DEPARTMENT - STFC DARESBURY (UK)    *
 *     http://www.stfc.ac.uk/CSE/randd/cmg/CRYSTAL/25806.aspx                  *
 * (3) UNIVERSIDAD AUTONOMA DEL ESTADO DE MORELOS - CUERNAVACA (MEXICO)        *
 * (4) UNIVERSITE' DE LORRAINE - NANCY (FRANCE)                                *
 * (5) UNIVERSITAET ULM - ULM (GERMANY); (6) IMPERIAL COLLEGE - LONDON (UK)    *
 * (7) NAG - OXFORD (UK); (8) UPMC - SORBONNE UNIVERSITES - PARIS (FRANCE)     *
 * (9) UNIVERSIDAD DE BARCELONA - BARCELONA (SPAIN)                            *
 *(10) UNIVERSITA' DI NAPOLI "FEDERICO II" - NAPOLI (ITALY)                    *
 *(11) NIS - NANOSTRUCTURED INTERFACES AND SURFACES - TORINO (ITALY)           *
 *(12) MPI FUER CHEMISCHE ENERGIEKONVERSION - MUELHEIM AN DER RUHR (GERMANY)   *
 *(13) UNIVERSITY OF STOCKHOLM - STOCKHOLM (SWEDEN)                            *
 *(14) UNIVERSITE' DE PAU ET DES PAYS DE L'ADOUR - PAU (FRANCE)                *
 *(15) UNIVERSITY OF CALIFORNIA SANTA BARBARA - SANTA BARBARA (USA)            *
 *(16) CURTIN UNIVERSITY - PERTH (AUSTRALIA)                                   *
 *                                                                             *
 ********************************************************************************
 EEEEEEEEEE STARTING  DATE 09 12 2014 TIME 10:06:40.8
 KCoF3 base all-electron ferro 4 4 4                                             

 CRYSTAL CALCULATION
 (INPUT ACCORDING TO THE INTERNATIONAL TABLES FOR X-RAY CRYSTALLOGRAPHY)
 CRYSTAL FAMILY                       :  CUBIC       
 CRYSTAL CLASS  (GROTH - 1921)        :  CUBIC HEXAKISOCTAHEDRAL              

 SPACE GROUP (CENTROSYMMETRIC)        :  P M 3 M         

 LATTICE PARAMETERS  (ANGSTROMS AND DEGREES) - CONVENTIONAL CELL
        A           B           C        ALPHA        BETA       GAMMA
     4.07100     4.07100     4.07100    90.00000    90.00000    90.00000


 NUMBER OF IRREDUCIBLE ATOMS IN THE CONVENTIONAL CELL:    3

 INPUT COORDINATES

 ATOM AT. N.              COORDINATES
   1  27     0.000000000000E+00  0.000000000000E+00  0.000000000000E+00
   2   9     5.000000000000E-01  0.000000000000E+00  0.000000000000E+00
   3  19     5.000000000000E-01  5.000000000000E-01  5.000000000000E-01

 *******************************************************************************

 << INFORMATION >>: FROM NOW ON, ALL COORDINATES REFER TO THE PRIMITIVE CELL

 *******************************************************************************

 LATTICE PARAMETERS  (ANGSTROMS AND DEGREES) - PRIMITIVE CELL
       A          B          C         ALPHA     BETA     GAMMA        VOLUME
    4.07100    4.07100    4.07100    90.00000  90.00000  90.00000     67.468850

 COORDINATES OF THE EQUIVALENT ATOMS (FRACTIONAL UNITS)

 N. ATOM EQUIV AT. N.          X                  Y                  Z

   1   1   1   27 CO    0.00000000000E+00  0.00000000000E+00  0.00000000000E+00

   2   2   1    9 F    -5.00000000000E-01  0.00000000000E+00  0.00000000000E+00
   3   2   2    9 F     0.00000000000E+00 -5.00000000000E-01  0.00000000000E+00
   4   2   3    9 F     0.00000000000E+00  0.00000000000E+00 -5.00000000000E-01

   5   3   1   19 K    -5.00000000000E-01 -5.00000000000E-01 -5.00000000000E-01

 NUMBER OF SYMMETRY OPERATORS         :   48
 *******************************************************************************
 * GEOMETRY EDITING - INPUT COORDINATES ARE GIVEN IN ANGSTROM         
 *******************************************************************************

 GEOMETRY NOW FULLY CONSISTENT WITH THE GROUP

 GCALCO - MAX INDICES DIRECT LATTICE VECTOR    14    14    14
 NO.OF VECTORS CREATED 6999 STARS  120 RMAX    91.35021 BOHR

 GEOMETRY FOR WAVE FUNCTION - DIMENSIONALITY OF THE SYSTEM    3
 (NON PERIODIC DIRECTION: LATTICE PARAMETER FORMALLY SET TO 500)
 *******************************************************************************
 LATTICE PARAMETERS (ANGSTROMS AND DEGREES) - BOHR = 0.5291772083 ANGSTROM
 PRIMITIVE CELL - CENTRING CODE 1/0 VOLUME=    67.468850 - DENSITY  3.812 g/cm^3
         A              B              C           ALPHA      BETA       GAMMA 
     4.07100000     4.07100000     4.07100000    90.000000  90.000000  90.000000
 *******************************************************************************
 ATOMS IN THE ASYMMETRIC UNIT    3 - ATOMS IN THE UNIT CELL:    5
     ATOM              X/A                 Y/B                 Z/C    
 *******************************************************************************
   1 T  27 CO    0.000000000000E+00  0.000000000000E+00  0.000000000000E+00
   2 T   9 F     5.000000000000E-01  0.000000000000E+00  0.000000000000E+00
   3 F   9 F     0.000000000000E+00  5.000000000000E-01  0.000000000000E+00
   4 F   9 F     0.000000000000E+00  0.000000000000E+00  5.000000000000E-01
   5 T  19 K     5.000000000000E-01  5.000000000000E-01  5.000000000000E-01

 T = ATOM BELONGING TO THE ASYMMETRIC UNIT

 ****   48 SYMMOPS - TRANSLATORS IN FRACTIONAL UNITS
 **** MATRICES AND TRANSLATORS IN THE CRYSTALLOGRAPHIC REFERENCE FRAME
   V INV                    ROTATION MATRICES                   TRANSLATORS
   1   1  1.00  0.00  0.00  0.00  1.00  0.00  0.00  0.00  1.00  0.00  0.00  0.00
   2   2 -1.00  0.00  0.00  0.00 -1.00  0.00  0.00  0.00  1.00  0.00  0.00  0.00
   3   3  1.00  0.00  0.00  0.00 -1.00  0.00  0.00  0.00 -1.00  0.00  0.00  0.00
   4   4 -1.00  0.00  0.00  0.00  1.00  0.00  0.00  0.00 -1.00  0.00  0.00  0.00
   5   6  0.00  0.00  1.00  1.00  0.00  0.00  0.00  1.00  0.00  0.00  0.00  0.00
   6   5  0.00  1.00  0.00  0.00  0.00  1.00  1.00  0.00  0.00  0.00  0.00  0.00
   7   8  0.00  0.00 -1.00 -1.00  0.00  0.00  0.00  1.00  0.00  0.00  0.00  0.00
   8   7  0.00 -1.00  0.00  0.00  0.00  1.00 -1.00  0.00  0.00  0.00  0.00  0.00
   9  10  0.00  0.00  1.00 -1.00  0.00  0.00  0.00 -1.00  0.00  0.00  0.00  0.00
  10   9  0.00 -1.00  0.00  0.00  0.00 -1.00  1.00  0.00  0.00  0.00  0.00  0.00
  11  12  0.00  0.00 -1.00  1.00  0.00  0.00  0.00 -1.00  0.00  0.00  0.00  0.00
  12  11  0.00  1.00  0.00  0.00  0.00 -1.00 -1.00  0.00  0.00  0.00  0.00  0.00
  13  13  0.00 -1.00  0.00 -1.00  0.00  0.00  0.00  0.00 -1.00  0.00  0.00  0.00
  14  14  0.00  1.00  0.00  1.00  0.00  0.00  0.00  0.00 -1.00  0.00  0.00  0.00
  15  16  0.00  1.00  0.00 -1.00  0.00  0.00  0.00  0.00  1.00  0.00  0.00  0.00
  16  15  0.00 -1.00  0.00  1.00  0.00  0.00  0.00  0.00  1.00  0.00  0.00  0.00
  17  17 -1.00  0.00  0.00  0.00  0.00 -1.00  0.00 -1.00  0.00  0.00  0.00  0.00
  18  18  0.00  0.00 -1.00  0.00 -1.00  0.00 -1.00  0.00  0.00  0.00  0.00  0.00
  19  21  1.00  0.00  0.00  0.00  0.00  1.00  0.00 -1.00  0.00  0.00  0.00  0.00
  20  22  0.00  0.00 -1.00  0.00  1.00  0.00  1.00  0.00  0.00  0.00  0.00  0.00
  21  19  1.00  0.00  0.00  0.00  0.00 -1.00  0.00  1.00  0.00  0.00  0.00  0.00
  22  20  0.00  0.00  1.00  0.00  1.00  0.00 -1.00  0.00  0.00  0.00  0.00  0.00
  23  23 -1.00  0.00  0.00  0.00  0.00  1.00  0.00  1.00  0.00  0.00  0.00  0.00
  24  24  0.00  0.00  1.00  0.00 -1.00  0.00  1.00  0.00  0.00  0.00  0.00  0.00
  25  25 -1.00  0.00  0.00  0.00 -1.00  0.00  0.00  0.00 -1.00  0.00  0.00  0.00
  26  26  1.00  0.00  0.00  0.00  1.00  0.00  0.00  0.00 -1.00  0.00  0.00  0.00
  27  27 -1.00  0.00  0.00  0.00  1.00  0.00  0.00  0.00  1.00  0.00  0.00  0.00
  28  28  1.00  0.00  0.00  0.00 -1.00  0.00  0.00  0.00  1.00  0.00  0.00  0.00
  29  30  0.00  0.00 -1.00 -1.00  0.00  0.00  0.00 -1.00  0.00  0.00  0.00  0.00
  30  29  0.00 -1.00  0.00  0.00  0.00 -1.00 -1.00  0.00  0.00  0.00  0.00  0.00
  31  32  0.00  0.00  1.00  1.00  0.00  0.00  0.00 -1.00  0.00  0.00  0.00  0.00
  32  31  0.00  1.00  0.00  0.00  0.00 -1.00  1.00  0.00  0.00  0.00  0.00  0.00
  33  34  0.00  0.00 -1.00  1.00  0.00  0.00  0.00  1.00  0.00  0.00  0.00  0.00
  34  33  0.00  1.00  0.00  0.00  0.00  1.00 -1.00  0.00  0.00  0.00  0.00  0.00
  35  36  0.00  0.00  1.00 -1.00  0.00  0.00  0.00  1.00  0.00  0.00  0.00  0.00
  36  35  0.00 -1.00  0.00  0.00  0.00  1.00  1.00  0.00  0.00  0.00  0.00  0.00
  37  37  0.00  1.00  0.00  1.00  0.00  0.00  0.00  0.00  1.00  0.00  0.00  0.00
  38  38  0.00 -1.00  0.00 -1.00  0.00  0.00  0.00  0.00  1.00  0.00  0.00  0.00
  39  40  0.00 -1.00  0.00  1.00  0.00  0.00  0.00  0.00 -1.00  0.00  0.00  0.00
  40  39  0.00  1.00  0.00 -1.00  0.00  0.00  0.00  0.00 -1.00  0.00  0.00  0.00
  41  41  1.00  0.00  0.00  0.00  0.00  1.00  0.00  1.00  0.00  0.00  0.00  0.00
  42  42  0.00  0.00  1.00  0.00  1.00  0.00  1.00  0.00  0.00  0.00  0.00  0.00
  43  45 -1.00  0.00  0.00  0.00  0.00 -1.00  0.00  1.00  0.00  0.00  0.00  0.00
  44  46  0.00  0.00  1.00  0.00 -1.00  0.00 -1.00  0.00  0.00  0.00  0.00  0.00
  45  43 -1.00  0.00  0.00  0.00  0.00  1.00  0.00 -1.00  0.00  0.00  0.00  0.00
  46  44  0.00  0.00 -1.00  0.00 -1.00  0.00  1.00  0.00  0.00  0.00  0.00  0.00
  47  47  1.00  0.00  0.00  0.00  0.00 -1.00  0.00 -1.00  0.00  0.00  0.00  0.00
  48  48  0.00  0.00 -1.00  0.00  1.00  0.00 -1.00  0.00  0.00  0.00  0.00  0.00

 DIRECT LATTICE VECTORS CARTESIAN COMPONENTS (ANGSTROM)
          X                    Y                    Z
   0.407100000000E+01   0.000000000000E+00   0.000000000000E+00
   0.000000000000E+00   0.407100000000E+01   0.000000000000E+00
   0.000000000000E+00   0.000000000000E+00   0.407100000000E+01


 CARTESIAN COORDINATES - PRIMITIVE CELL
 *******************************************************************************
 *      ATOM          X(ANGSTROM)         Y(ANGSTROM)         Z(ANGSTROM)
 *******************************************************************************
    1    27 CO    0.000000000000E+00  0.000000000000E+00  0.000000000000E+00
    2     9 F     2.035500000000E+00  0.000000000000E+00  0.000000000000E+00
    3     9 F     0.000000000000E+00  2.035500000000E+00  0.000000000000E+00
    4     9 F     0.000000000000E+00  0.000000000000E+00  2.035500000000E+00
    5    19 K     2.035500000000E+00  2.035500000000E+00  2.035500000000E+00

 *******************************************************************************
 LOCAL ATOMIC FUNCTIONS BASIS SET
 *******************************************************************************
   ATOM   X(AU)   Y(AU)   Z(AU)  N. TYPE  EXPONENT  S COEF   P COEF   D/F/G COEF
 *******************************************************************************
   1 CO   0.000   0.000   0.000
                                  1 S  
                                         3.417E+05 2.270E-04 0.000E+00 0.000E+00
                                         4.885E+04 1.929E-03 0.000E+00 0.000E+00
                                         1.040E+04 1.110E-02 0.000E+00 0.000E+00
                                         2.719E+03 5.010E-02 0.000E+00 0.000E+00
                                         8.197E+02 1.705E-01 0.000E+00 0.000E+00
                                         2.839E+02 3.692E-01 0.000E+00 0.000E+00
                                         1.110E+02 4.033E-01 0.000E+00 0.000E+00
                                         4.648E+01 1.433E-01 0.000E+00 0.000E+00
                             2-   5 SP 
                                         8.556E+02-5.400E-03 8.800E-03 0.000E+00
                                         2.065E+02-6.840E-02 6.200E-02 0.000E+00
                                         6.905E+01-1.316E-01 2.165E-01 0.000E+00
                                         2.727E+01 2.616E-01 4.095E-01 0.000E+00
                                         1.154E+01 6.287E-01 3.932E-01 0.000E+00
                                         4.202E+00 2.706E-01 2.250E-01 0.000E+00
                             6-   9 SP 
                                         5.155E+01 1.820E-02-2.870E-02 0.000E+00
                                         1.891E+01-2.432E-01-9.370E-02 0.000E+00
                                         7.725E+00-8.490E-01 2.036E-01 0.000E+00
                                         3.543E+00 8.264E-01 1.419E+00 0.000E+00
                            10-  13 SP 
                                         1.491E+00 1.000E+00 1.000E+00 0.000E+00
                            14-  17 SP 
                                         6.031E-01 1.000E+00 1.000E+00 0.000E+00
                            18-  22 D  
                                         2.990E+01 0.000E+00 0.000E+00 6.170E-02
                                         8.116E+00 0.000E+00 0.000E+00 2.835E-01
                                         2.643E+00 0.000E+00 0.000E+00 5.290E-01
                                         8.869E-01 0.000E+00 0.000E+00 4.976E-01
                            23-  27 D  
                                         3.011E-01 0.000E+00 0.000E+00 1.000E+00
   2 F    3.847   0.000   0.000
                                 28 S  
                                         1.377E+04 8.770E-04 0.000E+00 0.000E+00
                                         1.590E+03 9.150E-03 0.000E+00 0.000E+00
                                         3.265E+02 4.860E-02 0.000E+00 0.000E+00
                                         9.166E+01 1.691E-01 0.000E+00 0.000E+00
                                         3.046E+01 3.708E-01 0.000E+00 0.000E+00
                                         1.150E+01 4.165E-01 0.000E+00 0.000E+00
                                         4.760E+00 1.306E-01 0.000E+00 0.000E+00
                            29-  32 SP 
                                         1.900E+01-1.094E-01 1.244E-01 0.000E+00
                                         4.530E+00-1.289E-01 5.323E-01 0.000E+00
                                         1.387E+00 1.000E+00 1.000E+00 0.000E+00
                            33-  36 SP 
                                         4.400E-01 1.000E+00 1.000E+00 0.000E+00
                            37-  40 SP 
                                         1.790E-01 1.000E+00 1.000E+00 0.000E+00
   3 F    0.000   3.847   0.000
   4 F    0.000   0.000   3.847
   5 K    3.847   3.847   3.847
                                 67 S  
                                         1.725E+05 2.200E-04 0.000E+00 0.000E+00
                                         2.432E+04 1.920E-03 0.000E+00 0.000E+00
                                         5.140E+03 1.109E-02 0.000E+00 0.000E+00
                                         1.344E+03 4.992E-02 0.000E+00 0.000E+00
                                         4.045E+02 1.702E-01 0.000E+00 0.000E+00
                                         1.394E+02 3.679E-01 0.000E+00 0.000E+00
                                         5.439E+01 4.036E-01 0.000E+00 0.000E+00
                                         2.271E+01 1.459E-01 0.000E+00 0.000E+00
                            68-  71 SP 
                                         4.020E+02-6.030E-03 8.410E-03 0.000E+00
                                         9.350E+01-8.050E-02 6.020E-02 0.000E+00
                                         3.075E+01-1.094E-01 2.117E-01 0.000E+00
                                         1.192E+01 2.580E-01 3.726E-01 0.000E+00
                                         5.167E+00 6.840E-01 4.022E-01 0.000E+00
                                         1.582E+00 3.990E-01 1.860E-01 0.000E+00
                            72-  75 SP 
                                         1.735E+01-7.400E-03-3.210E-02 0.000E+00
                                         7.550E+00-1.290E-01-6.200E-02 0.000E+00
                                         2.939E+00-6.834E-01 1.691E-01 0.000E+00
                                         1.190E+00 1.080E+00 1.500E+00 0.000E+00
                                         6.740E-01 1.030E+00 1.060E+00 0.000E+00
                            76-  79 SP 
                                         3.890E-01 1.000E+00 1.000E+00 0.000E+00
                            80-  83 SP 
                                         2.160E-01 1.000E+00 1.000E+00 0.000E+00
 INFORMATION **** SET_MPP **** PCRYSTAL CALCULATION
 INFORMATION **** READM2 **** NEW DEFAULT: FOCK/KS MATRIX MIXING SET TO 30 %
 INFORMATION **** READM2 **** NEW DEFAULT: FULL DIRECT SCF MODE
 INFORMATION **** READM2 **** NEW DEFAULT: COULOMB BIPOLAR BUFFER SET TO 32 Mb
 INFORMATION **** READM2 **** NEW DEFAULT: EXCHANGE BIPOLAR BUFFER SET TO 32 Mb
 INFORMATION **** UHF **** SPIN POLARIZED SOLUTIONS ALLOWED
 INFORMATION **** TOLINTEG **** COULOMB AND EXCHANGE SERIES TOLERANCES MODIFIED
 INFORMATION **** TOLDEE **** SCF TOL ON TOTAL ENERGY SET TO           7
 INFORMATION **** SPINLOCK **** LOCK IN A GIVEN SPIN STATE
 ALPHA-BETA ELECTRONS LOCKED TO   3 FOR  30 SCF CYCLES
 INFORMATION **** LEVSHIFT **** LEVEL SHIFTER ACTIVE
 INFORMATION **** MULPOPAN ****  MULLIKEN POPULATION ANALYSIS AT THE END OF SCF
 INFORMATION **** MAXCYCLE **** MAX NUMBER OF SCF CYCLES SET TO         100
 *******************************************************************************
 N. OF ATOMS PER CELL         5  COULOMB OVERLAP TOL         (T1) 10**   -7
 NUMBER OF SHELLS            24  COULOMB PENETRATION TOL     (T2) 10**   -7
 NUMBER OF AO                83  EXCHANGE OVERLAP TOL        (T3) 10**   -7
 N. OF ELECTRONS PER CELL    73  EXCHANGE PSEUDO OVP (F(G))  (T4) 10**   -7
 CORE ELECTRONS PER CELL     42  EXCHANGE PSEUDO OVP (P(G))  (T5) 10**  -14
 N. OF SYMMETRY OPERATORS    48  POLE ORDER IN MONO ZONE                  4
 *******************************************************************************
 TYPE OF CALCULATION :  UNRESTRICTED OPEN SHELL
 HARTREE-FOCK HAMILTONIAN
 EIGENVALUE LEVEL SHIFTING OF  0.300 HARTREE
 LOCKING - FERMI ENERGY ALTERED BY LEVEL SHIFTER
 SPIN POLARIZATION - ALPHA-BETA =  3 FOR  30 CYCLES

 CAPPA:IS1  8;IS2  8;IS3  8; K PTS MONK NET  35; SYMMOPS:K SPACE  48;G SPACE  48

 *******************************************************************************
 MAX NUMBER OF SCF CYCLES     100  CONVERGENCE ON DELTAP        10**-17
 WEIGHT OF F(I) IN F(I+1)      30% CONVERGENCE ON ENERGY        10**- 7
 EIGENVALUE LEVEL SHIFTING OF  0.300 HARTREE
 LOCKING - FERMI ENERGY ALTERED BY LEVEL SHIFTER
 SPIN POLARIZATION - ALPHA-BETA =  3 FOR  30 CYCLES
 SHRINK. FACT.(MONKH.)    8  8  8  NUMBER OF K POINTS IN THE IBZ     35
 SHRINKING FACTOR(GILAT NET)    8  NUMBER OF K POINTS(GILAT NET)     35
 *******************************************************************************
 *** K POINTS COORDINATES (OBLIQUE COORDINATES IN UNITS OF IS =  8)
   1-R(  0  0  0)   2-C(  1  0  0)   3-C(  2  0  0)   4-C(  3  0  0)
   5-R(  4  0  0)   6-C(  1  1  0)   7-C(  2  1  0)   8-C(  3  1  0)
   9-C(  4  1  0)  10-C(  2  2  0)  11-C(  3  2  0)  12-C(  4  2  0)
  13-C(  3  3  0)  14-C(  4  3  0)  15-R(  4  4  0)  16-C(  1  1  1)
  17-C(  2  1  1)  18-C(  3  1  1)  19-C(  4  1  1)  20-C(  2  2  1)
  21-C(  3  2  1)  22-C(  4  2  1)  23-C(  3  3  1)  24-C(  4  3  1)
  25-C(  4  4  1)  26-C(  2  2  2)  27-C(  3  2  2)  28-C(  4  2  2)
  29-C(  3  3  2)  30-C(  4  3  2)  31-C(  4  4  2)  32-C(  3  3  3)
  33-C(  4  3  3)  34-C(  4  4  3)  35-R(  4  4  4)

 DIRECT LATTICE VECTORS COMPON. (A.U.)     RECIP. LATTICE VECTORS COMPON. (A.U.) 
        X            Y            Z              X            Y            Z
    7.6930751    0.0000000    0.0000000      0.8167326    0.0000000    0.0000000
    0.0000000    7.6930751    0.0000000      0.0000000    0.8167326    0.0000000
    0.0000000    0.0000000    7.6930751      0.0000000    0.0000000    0.8167326

 DISK SPACE FOR EIGENVECTORS (FTN 10)      454674 REALS

 SYMMETRY ADAPTION OF THE BLOCH FUNCTIONS ENABLED

 MATRIX SIZE: P(G)  110685, F(G)   20264, P(G) IRR    4375, F(G) IRR    2325
 MAX G-VECTOR INDEX FOR 1- AND 2-ELECTRON INTEGRALS 119

 TTTTTTTTTTTTTTTTTTTTTTTTTTTTTT INPUT       TELAPSE        0.00 TCPU        0.00

 NEIGHBORS OF THE NON-EQUIVALENT ATOMS

 N = NUMBER OF NEIGHBORS AT DISTANCE R
    ATOM  N     R/ANG      R/AU   NEIGHBORS (ATOM LABELS AND CELL INDICES)
   1 CO   6     2.0355     3.8465    2 F    0 0 0    2 F   -1 0 0    3 F    0 0 0
                                     3 F    0-1 0    4 F    0 0 0    4 F    0 0-1
   1 CO   8     3.5256     6.6624    5 K    0 0 0    5 K   -1 0 0    5 K    0-1 0
                                     5 K    0 0-1    5 K   -1-1 0    5 K   -1 0-1
                                     5 K    0-1-1    5 K   -1-1-1
   1 CO   6     4.0710     7.6931    1 CO  -1 0 0    1 CO   1 0 0    1 CO   0-1 0
                                     1 CO   0 1 0    1 CO   0 0-1    1 CO   0 0 1
   1 CO  24     4.5515     8.6011    2 F    0 1 0    2 F    0-1 0    2 F    0 0 1
                                     2 F    0 0-1    2 F   -1-1 0    2 F   -1 0-1
                                     2 F   -1 0 1    2 F   -1 1 0    3 F    0 0 1
                                     3 F    0 0-1    3 F    1 0 0    3 F   -1 0 0
                                     3 F    0-1-1    3 F   -1-1 0    3 F    1-1 0
                                     3 F    0-1 1    4 F    1 0 0    4 F   -1 0 0
                                     4 F    0 1 0    4 F    0-1 0    4 F   -1 0-1
                                     4 F    0-1-1    4 F    0 1-1    4 F    1 0-1
   1 CO  12     5.7573    10.8797    1 CO  -1-1 0    1 CO   1 1 0    1 CO  -1 0-1
                                     1 CO   1 0 1    1 CO  -1 0 1    1 CO   1 0-1
                                     1 CO  -1 1 0    1 CO   1-1 0    1 CO   0-1-1
                                     1 CO   0 1 1    1 CO   0-1 1    1 CO   0 1-1
   1 CO  30     6.1065    11.5396    2 F    1 0 0    2 F    0 1 1    2 F    0-1-1
                                     2 F    0 1-1    2 F    0-1 1    2 F   -1-1-1
                                     2 F   -1-1 1    2 F   -1 1-1    2 F   -1 1 1
                                     2 F   -2 0 0    3 F    0 1 0    3 F    1 0 1
                                     3 F   -1 0-1    3 F   -1 0 1    3 F    1 0-1
                                     3 F   -1-1-1    3 F    1-1-1    3 F   -1-1 1
                                     3 F    1-1 1    3 F    0-2 0    4 F    0 0 1
                                     4 F    1 1 0    4 F   -1-1 0    4 F    1-1 0
                                     4 F   -1 1 0    4 F   -1-1-1    4 F   -1 1-1
                                     4 F    1-1-1    4 F    1 1-1    4 F    0 0-2

   2 F    2     2.0355     3.8465    1 CO   0 0 0    1 CO   1 0 0
   2 F    8     2.8786     5.4398    3 F    0 0 0    3 F    1 0 0    3 F    0-1 0
                                     3 F    1-1 0    4 F    0 0 0    4 F    0 0-1
                                     4 F    1 0 0    4 F    1 0-1
   2 F    4     2.8786     5.4398    5 K    0 0 0    5 K    0-1 0    5 K    0 0-1
                                     5 K    0-1-1
   2 F    6     4.0710     7.6931    2 F   -1 0 0    2 F    1 0 0    2 F    0-1 0
                                     2 F    0 1 0    2 F    0 0-1    2 F    0 0 1
   2 F    8     4.5515     8.6011    1 CO   0-1 0    1 CO   0 1 0    1 CO   0 0-1
                                     1 CO   0 0 1    1 CO   1 1 0    1 CO   1 0 1
                                     1 CO   1 0-1    1 CO   1-1 0
   2 F   16     4.9859     9.4221    3 F    0 0 1    3 F    0 0-1    3 F    1 0 1
                                     3 F    1 0-1    3 F    0-1-1    3 F    0-1 1
                                     3 F    1-1 1    3 F    1-1-1    4 F    0-1 0
                                     4 F    0 1 0    4 F    0-1-1    4 F    0 1-1
                                     4 F    1 1 0    4 F    1-1 0    4 F    1-1-1
                                     4 F    1 1-1

   5 K   12     2.8786     5.4398    2 F    0 0 0    2 F    0 1 0    2 F    0 0 1
                                     2 F    0 1 1    3 F    0 0 0    3 F    0 0 1
                                     3 F    1 0 0    3 F    1 0 1    4 F    0 0 0
                                     4 F    1 0 0    4 F    0 1 0    4 F    1 1 0
   5 K    8     3.5256     6.6624    1 CO   0 0 0    1 CO   1 0 0    1 CO   0 1 0
                                     1 CO   0 0 1    1 CO   1 1 0    1 CO   1 0 1
                                     1 CO   0 1 1    1 CO   1 1 1
   5 K    6     4.0710     7.6931    5 K   -1 0 0    5 K    1 0 0    5 K    0-1 0
                                     5 K    0 1 0    5 K    0 0-1    5 K    0 0 1
   5 K   24     4.9859     9.4221    2 F   -1 0 0    2 F    1 0 0    2 F    1 1 0
                                     2 F    1 0 1    2 F   -1 0 1    2 F   -1 1 0
                                     2 F    1 1 1    2 F   -1 1 1    3 F    0-1 0
                                     3 F    0 1 0    3 F    0 1 1    3 F    1 1 0
                                     3 F    1-1 0    3 F    0-1 1    3 F    1 1 1
                                     3 F    1-1 1    4 F    0 0-1    4 F    0 0 1
                                     4 F    1 0 1    4 F    0 1 1    4 F    0 1-1
                                     4 F    1 0-1    4 F    1 1 1    4 F    1 1-1
   5 K   12     5.7573    10.8797    5 K   -1-1 0    5 K    1 1 0    5 K   -1 0-1
                                     5 K    1 0 1    5 K   -1 0 1    5 K    1 0-1
                                     5 K   -1 1 0    5 K    1-1 0    5 K    0-1-1
                                     5 K    0 1 1    5 K    0-1 1    5 K    0 1-1
   5 K   24     6.4368    12.1638    2 F    0-1 0    2 F    0 0-1    2 F    0-1 1
                                     2 F    0 1-1    2 F    0 2 0    2 F    0 0 2
                                     2 F    0 2 1    2 F    0 1 2    3 F    0 0-1
                                     3 F   -1 0 0    3 F    1 0-1    3 F   -1 0 1
                                     3 F    0 0 2    3 F    2 0 0    3 F    1 0 2
                                     3 F    2 0 1    4 F   -1 0 0    4 F    0-1 0
                                     4 F   -1 1 0    4 F    1-1 0    4 F    2 0 0
                                     4 F    0 2 0    4 F    2 1 0    4 F    1 2 0


 THERE ARE NO SYMMETRY ALLOWED DIRECTIONS
 TTTTTTTTTTTTTTTTTTTTTTTTTTTTTT SYMM        TELAPSE        0.01 TCPU        0.01
 TTTTTTTTTTTTTTTTTTTTTTTTTTTTTT INT_SCREEN  TELAPSE        0.01 TCPU        0.01
 INFORMATION **** EXCBUF **** EXCH. BIPO BUFFER: WORDS USED =      371754
 TTTTTTTTTTTTTTTTTTTTTTTTTTTTTT INT_CALC    TELAPSE        0.03 TCPU        0.03
 EEEEEEEEEE INT_CALC TERMINATION  DATE 09 12 2014 TIME 10:06:40.8

 *******************************************************************************
 KCoF3 base all-electron ferro 4 4 4                                             
 CRYSTAL - SCF - TYPE OF CALCULATION :  UNRESTRICTED OPEN SHELL
 *******************************************************************************

 CAPPA:IS1  8;IS2  8;IS3  8; K PTS MONK NET  35; SYMMOPS:K SPACE  48;G SPACE  48

 TTTTTTTTTTTTTTTTTTTTTTTTTTTTTT SDIK        TELAPSE        0.06 TCPU        0.06

 AAAAAAAAAAAAAAAAAAAAAAAAAAAAAAAAAAAAAAAAAAAAAAAAAAAAAAAAAAAAAAAAAAAAAAAAAAAAAAA
         ATOMIC WAVEFUNCTION(S)


 NUCLEAR CHARGE 27.0  SYMMETRY SPECIES            S    P    D
 N. ELECTRONS   25.0  NUMBER OF PRIMITIVE GTOS   20   12    5
                      NUMBER OF CONTRACTED GTOS   5    4    2
                      NUMBER OF CLOSED SHELLS     3    2    0
                      OPEN SHELL OCCUPATION       0    0    7

  ZNUC SCFIT  TOTAL HF ENERGY   KINETIC ENERGY   VIRIAL THEOREM ACCURACY
  27.0  18   -1.380502477E+03  1.380054440E+03 -2.000324651E+00  4.9E-06

 NUCLEAR CHARGE  9.0  SYMMETRY SPECIES            S    P
 N. ELECTRONS   10.0  NUMBER OF PRIMITIVE GTOS   12    5
                      NUMBER OF CONTRACTED GTOS   4    3
                      NUMBER OF CLOSED SHELLS     2    1
                      OPEN SHELL OCCUPATION       0    0

  ZNUC SCFIT  TOTAL HF ENERGY   KINETIC ENERGY   VIRIAL THEOREM ACCURACY
   9.0  28   -9.941465138E+01  9.937084613E+01 -2.000440826E+00  3.8E-06

 NUCLEAR CHARGE 19.0  SYMMETRY SPECIES            S    P
 N. ELECTRONS   18.0  NUMBER OF PRIMITIVE GTOS   21   13
                      NUMBER OF CONTRACTED GTOS   5    4
                      NUMBER OF CLOSED SHELLS     3    2
                      OPEN SHELL OCCUPATION       0    0

  ZNUC SCFIT  TOTAL HF ENERGY   KINETIC ENERGY   VIRIAL THEOREM ACCURACY
  19.0   8   -5.989803225E+02  5.986852286E+02 -2.000492903E+00  1.3E-06

 AAAAAAAAAAAAAAAAAAAAAAAAAAAAAAAAAAAAAAAAAAAAAAAAAAAAAAAAAAAAAAAAAAAAAAAAAAAAAAA

 CHARGE NORMALIZATION FACTOR   1.00000000
 TOTAL ATOMIC CHARGES:
  25.0000000  10.0000000  10.0000000  10.0000000  18.0000000
 SUMMED SPIN DENSITY           0.00000000
 TOTAL ATOMIC SPINS  :
   0.0000000   0.0000000   0.0000000   0.0000000   0.0000000
 TTTTTTTTTTTTTTTTTTTTTTTTTTTTTT MOQGAD      TELAPSE        0.08 TCPU        0.08
 TTTTTTTTTTTTTTTTTTTTTTTTTTTTTT SHELLX2     TELAPSE        3.60 TCPU        3.60
 TTTTTTTTTTTTTTTTTTTTTTTTTTTTTT MONMO3      TELAPSE        3.64 TCPU        3.65
 CYC   0 ETOT(AU) -2.278723430010E+03 DETOT -2.28E+03 tst  0.00E+00 PX  1.00E+00
 TTTTTTTTTTTTTTTTTTTTTTTTTTTTTT FDIK        TELAPSE        3.77 TCPU        3.77

    ALPHA      ELECTRONS
 INSULATING STATE - LEVEL SHIFTER    0.30 au
 TOP OF VALENCE BANDS -    BAND     38; K    1; EIG -1.0000000E+00 AU
 BOTTOM OF VIRTUAL BANDS - BAND     39; K    1; EIG  1.0000000E+00 AU

    BETA       ELECTRONS
 INSULATING STATE - LEVEL SHIFTER    0.30 au
 TOP OF VALENCE BANDS -    BAND     35; K    1; EIG -1.0000000E+00 AU
 BOTTOM OF VIRTUAL BANDS - BAND     36; K    1; EIG  1.0000000E+00 AU
 TTTTTTTTTTTTTTTTTTTTTTTTTTTTTT PDIG        TELAPSE        3.79 TCPU        3.80
 CHARGE NORMALIZATION FACTOR   0.99986624
 TOTAL ATOMIC CHARGES:
  25.4113775   9.8642568   9.8642568   9.8642568  17.9958521
 SUMMED SPIN DENSITY           2.98983441
 TOTAL ATOMIC SPINS  :
   2.6833184   0.1021259   0.1021259   0.1021259   0.0001382
 TTTTTTTTTTTTTTTTTTTTTTTTTTTTTT MOQGAD      TELAPSE        3.81 TCPU        3.81
 TTTTTTTTTTTTTTTTTTTTTTTTTTTTTT SHELLX2     TELAPSE        7.55 TCPU        7.55
 TTTTTTTTTTTTTTTTTTTTTTTTTTTTTT MONMO3      TELAPSE        7.59 TCPU        7.59
 CYC   1 ETOT(AU) -2.278614240518E+03 DETOT  1.09E-01 tst  0.00E+00 PX  1.00E+00
 TTTTTTTTTTTTTTTTTTTTTTTTTTTTTT FDIK        TELAPSE        7.66 TCPU        7.66

    ALPHA      ELECTRONS
 INSULATING STATE - LEVEL SHIFTER    0.30 au
 TOP OF VALENCE BANDS -    BAND     38; K    1; EIG -1.0000000E+00 AU
 BOTTOM OF VIRTUAL BANDS - BAND     39; K    1; EIG  1.0000000E+00 AU

    BETA       ELECTRONS
 INSULATING STATE - LEVEL SHIFTER    0.30 au
 TOP OF VALENCE BANDS -    BAND     35; K    1; EIG -1.0000000E+00 AU
 BOTTOM OF VIRTUAL BANDS - BAND     36; K    1; EIG  1.0000000E+00 AU
 TTTTTTTTTTTTTTTTTTTTTTTTTTTTTT PDIG        TELAPSE        7.68 TCPU        7.68
 CHARGE NORMALIZATION FACTOR   0.99986624
 TOTAL ATOMIC CHARGES:
  25.3203146   9.8942819   9.8942819   9.8942819  17.9968398
 SUMMED SPIN DENSITY           2.98983441
 TOTAL ATOMIC SPINS  :
   2.7720334   0.0727201   0.0727201   0.0727201  -0.0003594
 TTTTTTTTTTTTTTTTTTTTTTTTTTTTTT MOQGAD      TELAPSE        7.69 TCPU        7.70
 TTTTTTTTTTTTTTTTTTTTTTTTTTTTTT SHELLX2     TELAPSE       11.41 TCPU       11.42
 TTTTTTTTTTTTTTTTTTTTTTTTTTTTTT MONMO3      TELAPSE       11.46 TCPU       11.46
 CYC   2 ETOT(AU) -2.278670756238E+03 DETOT -5.65E-02 tst  1.58E-02 PX  6.79E-02
 TTTTTTTTTTTTTTTTTTTTTTTTTTTTTT FDIK        TELAPSE       11.53 TCPU       11.53

    ALPHA      ELECTRONS
 INSULATING STATE - LEVEL SHIFTER    0.30 au
 TOP OF VALENCE BANDS -    BAND     38; K    1; EIG -1.0000000E+00 AU
 BOTTOM OF VIRTUAL BANDS - BAND     39; K    1; EIG  1.0000000E+00 AU

    BETA       ELECTRONS
 INSULATING STATE - LEVEL SHIFTER    0.30 au
 TOP OF VALENCE BANDS -    BAND     35; K    1; EIG -1.0000000E+00 AU
 BOTTOM OF VIRTUAL BANDS - BAND     36; K    1; EIG  1.0000000E+00 AU
 TTTTTTTTTTTTTTTTTTTTTTTTTTTTTT PDIG        TELAPSE       11.55 TCPU       11.55
 CHARGE NORMALIZATION FACTOR   0.99986624
 TOTAL ATOMIC CHARGES:
  25.2718880   9.9103812   9.9103812   9.9103812  17.9969684
 SUMMED SPIN DENSITY           2.98983441
 TOTAL ATOMIC SPINS  :
   2.8243730   0.0552898   0.0552898   0.0552898  -0.0004079
 TTTTTTTTTTTTTTTTTTTTTTTTTTTTTT MOQGAD      TELAPSE       11.56 TCPU       11.57
 TTTTTTTTTTTTTTTTTTTTTTTTTTTTTT SHELLX2     TELAPSE       15.32 TCPU       15.33
 TTTTTTTTTTTTTTTTTTTTTTTTTTTTTT MONMO3      TELAPSE       15.37 TCPU       15.37
 CYC   3 ETOT(AU) -2.278691514984E+03 DETOT -2.08E-02 tst  6.36E-03 PX  3.46E-02
 TTTTTTTTTTTTTTTTTTTTTTTTTTTTTT FDIK        TELAPSE       15.43 TCPU       15.44

    ALPHA      ELECTRONS
 INSULATING STATE - LEVEL SHIFTER    0.30 au
 TOP OF VALENCE BANDS -    BAND     38; K    1; EIG -1.0000000E+00 AU
 BOTTOM OF VIRTUAL BANDS - BAND     39; K    1; EIG  1.0000000E+00 AU

    BETA       ELECTRONS
 INSULATING STATE - LEVEL SHIFTER    0.30 au
 TOP OF VALENCE BANDS -    BAND     35; K    1; EIG -1.0000000E+00 AU
 BOTTOM OF VIRTUAL BANDS - BAND     36; K    1; EIG  1.0000000E+00 AU
 TTTTTTTTTTTTTTTTTTTTTTTTTTTTTT PDIG        TELAPSE       15.45 TCPU       15.46
 CHARGE NORMALIZATION FACTOR   0.99986624
 TOTAL ATOMIC CHARGES:
  25.2472136   9.9186585   9.9186585   9.9186585  17.9968110
 SUMMED SPIN DENSITY           2.98983441
 TOTAL ATOMIC SPINS  :
   2.8532123   0.0456609   0.0456609   0.0456609  -0.0003607
 TTTTTTTTTTTTTTTTTTTTTTTTTTTTTT MOQGAD      TELAPSE       15.47 TCPU       15.48
 TTTTTTTTTTTTTTTTTTTTTTTTTTTTTT SHELLX2     TELAPSE       19.26 TCPU       19.28
 TTTTTTTTTTTTTTTTTTTTTTTTTTTTTT MONMO3      TELAPSE       19.31 TCPU       19.32
 CYC   4 ETOT(AU) -2.278698465382E+03 DETOT -6.95E-03 tst  2.06E-03 PX  1.96E-02
 TTTTTTTTTTTTTTTTTTTTTTTTTTTTTT FDIK        TELAPSE       19.38 TCPU       19.39

    ALPHA      ELECTRONS
 INSULATING STATE - LEVEL SHIFTER    0.30 au
 TOP OF VALENCE BANDS -    BAND     38; K    1; EIG -1.0000000E+00 AU
 BOTTOM OF VIRTUAL BANDS - BAND     39; K    1; EIG  1.0000000E+00 AU

    BETA       ELECTRONS
 INSULATING STATE - LEVEL SHIFTER    0.30 au
 TOP OF VALENCE BANDS -    BAND     35; K    1; EIG -1.0000000E+00 AU
 BOTTOM OF VIRTUAL BANDS - BAND     36; K    1; EIG  1.0000000E+00 AU
 TTTTTTTTTTTTTTTTTTTTTTTTTTTTTT PDIG        TELAPSE       19.40 TCPU       19.41
 CHARGE NORMALIZATION FACTOR   0.99986624
 TOTAL ATOMIC CHARGES:
  25.2336673   9.9232545   9.9232545   9.9232545  17.9965693
 SUMMED SPIN DENSITY           2.98983441
 TOTAL ATOMIC SPINS  :
   2.8698026   0.0401164   0.0401164   0.0401164  -0.0003174
 TTTTTTTTTTTTTTTTTTTTTTTTTTTTTT MOQGAD      TELAPSE       19.42 TCPU       19.43
 TTTTTTTTTTTTTTTTTTTTTTTTTTTTTT SHELLX2     TELAPSE       23.18 TCPU       23.19
 TTTTTTTTTTTTTTTTTTTTTTTTTTTTTT MONMO3      TELAPSE       23.22 TCPU       23.23
 CYC   5 ETOT(AU) -2.278700858344E+03 DETOT -2.39E-03 tst  6.67E-04 PX  1.27E-02
 TTTTTTTTTTTTTTTTTTTTTTTTTTTTTT FDIK        TELAPSE       23.29 TCPU       23.30

    ALPHA      ELECTRONS
 INSULATING STATE - LEVEL SHIFTER    0.30 au
 TOP OF VALENCE BANDS -    BAND     38; K    1; EIG -1.0000000E+00 AU
 BOTTOM OF VIRTUAL BANDS - BAND     39; K    1; EIG  1.0000000E+00 AU

    BETA       ELECTRONS
 INSULATING STATE - LEVEL SHIFTER    0.30 au
 TOP OF VALENCE BANDS -    BAND     35; K    1; EIG -1.0000000E+00 AU
 BOTTOM OF VIRTUAL BANDS - BAND     36; K    1; EIG  1.0000000E+00 AU
 TTTTTTTTTTTTTTTTTTTTTTTTTTTTTT PDIG        TELAPSE       23.31 TCPU       23.32
 CHARGE NORMALIZATION FACTOR   0.99986624
 TOTAL ATOMIC CHARGES:
  25.2259656   9.9258813   9.9258813   9.9258813  17.9963903
 SUMMED SPIN DENSITY           2.98983441
 TOTAL ATOMIC SPINS  :
   2.8795987   0.0368405   0.0368405   0.0368405  -0.0002856
 TTTTTTTTTTTTTTTTTTTTTTTTTTTTTT MOQGAD      TELAPSE       23.33 TCPU       23.34
 TTTTTTTTTTTTTTTTTTTTTTTTTTTTTT SHELLX2     TELAPSE       27.05 TCPU       27.07
 TTTTTTTTTTTTTTTTTTTTTTTTTTTTTT MONMO3      TELAPSE       27.10 TCPU       27.11
 CYC   6 ETOT(AU) -2.278701699614E+03 DETOT -8.41E-04 tst  2.21E-04 PX  8.15E-03
 TTTTTTTTTTTTTTTTTTTTTTTTTTTTTT FDIK        TELAPSE       27.16 TCPU       27.18

    ALPHA      ELECTRONS
 INSULATING STATE - LEVEL SHIFTER    0.30 au
 TOP OF VALENCE BANDS -    BAND     38; K    1; EIG -1.0000000E+00 AU
 BOTTOM OF VIRTUAL BANDS - BAND     39; K    1; EIG  1.0000000E+00 AU

    BETA       ELECTRONS
 INSULATING STATE - LEVEL SHIFTER    0.30 au
 TOP OF VALENCE BANDS -    BAND     35; K    1; EIG -1.0000000E+00 AU
 BOTTOM OF VIRTUAL BANDS - BAND     36; K    1; EIG  1.0000000E+00 AU
 TTTTTTTTTTTTTTTTTTTTTTTTTTTTTT PDIG        TELAPSE       27.18 TCPU       27.20
 CHARGE NORMALIZATION FACTOR   0.99986624
 TOTAL ATOMIC CHARGES:
  25.2214638   9.9274187   9.9274187   9.9274187  17.9962802
 SUMMED SPIN DENSITY           2.98983441
 TOTAL ATOMIC SPINS  :
   2.8854765   0.0348779   0.0348779   0.0348779  -0.0002758
 TTTTTTTTTTTTTTTTTTTTTTTTTTTTTT MOQGAD      TELAPSE       27.20 TCPU       27.21
 TTTTTTTTTTTTTTTTTTTTTTTTTTTTTT SHELLX2     TELAPSE       30.97 TCPU       30.99
 TTTTTTTTTTTTTTTTTTTTTTTTTTTTTT MONMO3      TELAPSE       31.02 TCPU       31.04
 CYC   7 ETOT(AU) -2.278701996828E+03 DETOT -2.97E-04 tst  7.36E-05 PX  5.24E-03
 TTTTTTTTTTTTTTTTTTTTTTTTTTTTTT FDIK        TELAPSE       31.09 TCPU       31.11

    ALPHA      ELECTRONS
 INSULATING STATE - LEVEL SHIFTER    0.30 au
 TOP OF VALENCE BANDS -    BAND     38; K    1; EIG -1.0000000E+00 AU
 BOTTOM OF VIRTUAL BANDS - BAND     39; K    1; EIG  1.0000000E+00 AU

    BETA       ELECTRONS
 INSULATING STATE - LEVEL SHIFTER    0.30 au
 TOP OF VALENCE BANDS -    BAND     35; K    1; EIG -1.0000000E+00 AU
 BOTTOM OF VIRTUAL BANDS - BAND     36; K    1; EIG  1.0000000E+00 AU
 TTTTTTTTTTTTTTTTTTTTTTTTTTTTTT PDIG        TELAPSE       31.11 TCPU       31.13
 CHARGE NORMALIZATION FACTOR   0.99986624
 TOTAL ATOMIC CHARGES:
  25.2188000   9.9283302   9.9283302   9.9283302  17.9962095
 SUMMED SPIN DENSITY           2.98983441
 TOTAL ATOMIC SPINS  :
   2.8890335   0.0336912   0.0336912   0.0336912  -0.0002725
 TTTTTTTTTTTTTTTTTTTTTTTTTTTTTT MOQGAD      TELAPSE       31.13 TCPU       31.15
 TTTTTTTTTTTTTTTTTTTTTTTTTTTTTT SHELLX2     TELAPSE       34.87 TCPU       34.89
 TTTTTTTTTTTTTTTTTTTTTTTTTTTTTT MONMO3      TELAPSE       34.91 TCPU       34.93
 CYC   8 ETOT(AU) -2.278702099857E+03 DETOT -1.03E-04 tst  2.48E-05 PX  3.38E-03
 TTTTTTTTTTTTTTTTTTTTTTTTTTTTTT FDIK        TELAPSE       34.98 TCPU       35.00

    ALPHA      ELECTRONS
 INSULATING STATE - LEVEL SHIFTER    0.30 au
 TOP OF VALENCE BANDS -    BAND     38; K    1; EIG -1.0000000E+00 AU
 BOTTOM OF VIRTUAL BANDS - BAND     39; K    1; EIG  1.0000000E+00 AU

    BETA       ELECTRONS
 INSULATING STATE - LEVEL SHIFTER    0.30 au
 TOP OF VALENCE BANDS -    BAND     35; K    1; EIG -1.0000000E+00 AU
 BOTTOM OF VIRTUAL BANDS - BAND     36; K    1; EIG  1.0000000E+00 AU
 TTTTTTTTTTTTTTTTTTTTTTTTTTTTTT PDIG        TELAPSE       35.00 TCPU       35.02
 CHARGE NORMALIZATION FACTOR   0.99986624
 TOTAL ATOMIC CHARGES:
  25.2171990   9.9288780   9.9288780   9.9288780  17.9961670
 SUMMED SPIN DENSITY           2.98983441
 TOTAL ATOMIC SPINS  :
   2.8912140   0.0329648   0.0329648   0.0329648  -0.0002741
 TTTTTTTTTTTTTTTTTTTTTTTTTTTTTT MOQGAD      TELAPSE       35.02 TCPU       35.04
 TTTTTTTTTTTTTTTTTTTTTTTTTTTTTT SHELLX2     TELAPSE       38.77 TCPU       38.79
 TTTTTTTTTTTTTTTTTTTTTTTTTTTTTT MONMO3      TELAPSE       38.81 TCPU       38.83
 CYC   9 ETOT(AU) -2.278702133540E+03 DETOT -3.37E-05 tst  1.14E-05 PX  2.17E-03
 TTTTTTTTTTTTTTTTTTTTTTTTTTTTTT FDIK        TELAPSE       38.88 TCPU       38.90

    ALPHA      ELECTRONS
 INSULATING STATE - LEVEL SHIFTER    0.30 au
 TOP OF VALENCE BANDS -    BAND     38; K    1; EIG -1.0000000E+00 AU
 BOTTOM OF VIRTUAL BANDS - BAND     39; K    1; EIG  1.0000000E+00 AU

    BETA       ELECTRONS
 INSULATING STATE - LEVEL SHIFTER    0.30 au
 TOP OF VALENCE BANDS -    BAND     35; K    1; EIG -1.0000000E+00 AU
 BOTTOM OF VIRTUAL BANDS - BAND     36; K    1; EIG  1.0000000E+00 AU
 TTTTTTTTTTTTTTTTTTTTTTTTTTTTTT PDIG        TELAPSE       38.91 TCPU       38.93
 CHARGE NORMALIZATION FACTOR   0.99986624
 TOTAL ATOMIC CHARGES:
  25.2162280   9.9292107   9.9292107   9.9292107  17.9961398
 SUMMED SPIN DENSITY           2.98983441
 TOTAL ATOMIC SPINS  :
   2.8925618   0.0325165   0.0325165   0.0325165  -0.0002768
 TTTTTTTTTTTTTTTTTTTTTTTTTTTTTT MOQGAD      TELAPSE       38.92 TCPU       38.94
 TTTTTTTTTTTTTTTTTTTTTTTTTTTTTT SHELLX2     TELAPSE       42.70 TCPU       42.72
 TTTTTTTTTTTTTTTTTTTTTTTTTTTTTT MONMO3      TELAPSE       42.74 TCPU       42.77
 CYC  10 ETOT(AU) -2.278702142957E+03 DETOT -9.42E-06 tst  9.95E-06 PX  1.40E-03
 TTTTTTTTTTTTTTTTTTTTTTTTTTTTTT FDIK        TELAPSE       42.81 TCPU       42.83

    ALPHA      ELECTRONS
 INSULATING STATE - LEVEL SHIFTER    0.30 au
 TOP OF VALENCE BANDS -    BAND     38; K    1; EIG -1.0000000E+00 AU
 BOTTOM OF VIRTUAL BANDS - BAND     39; K    1; EIG  1.0000000E+00 AU

    BETA       ELECTRONS
 INSULATING STATE - LEVEL SHIFTER    0.30 au
 TOP OF VALENCE BANDS -    BAND     35; K    1; EIG -1.0000000E+00 AU
 BOTTOM OF VIRTUAL BANDS - BAND     36; K    1; EIG  1.0000000E+00 AU
 TTTTTTTTTTTTTTTTTTTTTTTTTTTTTT PDIG        TELAPSE       42.83 TCPU       42.85
 CHARGE NORMALIZATION FACTOR   0.99986624
 TOTAL ATOMIC CHARGES:
  25.2156317   9.9294151   9.9294151   9.9294151  17.9961230
 SUMMED SPIN DENSITY           2.98983441
 TOTAL ATOMIC SPINS  :
   2.8934032   0.0322370   0.0322370   0.0322370  -0.0002798
 TTTTTTTTTTTTTTTTTTTTTTTTTTTTTT MOQGAD      TELAPSE       42.85 TCPU       42.87
 TTTTTTTTTTTTTTTTTTTTTTTTTTTTTT SHELLX2     TELAPSE       46.61 TCPU       46.63
 TTTTTTTTTTTTTTTTTTTTTTTTTTTTTT MONMO3      TELAPSE       46.65 TCPU       46.68
 CYC  11 ETOT(AU) -2.278702144364E+03 DETOT -1.41E-06 tst  8.67E-06 PX  8.98E-04
 TTTTTTTTTTTTTTTTTTTTTTTTTTTTTT FDIK        TELAPSE       46.72 TCPU       46.75

    ALPHA      ELECTRONS
 INSULATING STATE - LEVEL SHIFTER    0.30 au
 TOP OF VALENCE BANDS -    BAND     38; K    1; EIG -1.0000000E+00 AU
 BOTTOM OF VIRTUAL BANDS - BAND     39; K    1; EIG  1.0000000E+00 AU

    BETA       ELECTRONS
 INSULATING STATE - LEVEL SHIFTER    0.30 au
 TOP OF VALENCE BANDS -    BAND     35; K    1; EIG -1.0000000E+00 AU
 BOTTOM OF VIRTUAL BANDS - BAND     36; K    1; EIG  1.0000000E+00 AU
 TTTTTTTTTTTTTTTTTTTTTTTTTTTTTT PDIG        TELAPSE       46.74 TCPU       46.77
 CHARGE NORMALIZATION FACTOR   0.99986624
 TOTAL ATOMIC CHARGES:
  25.2152612   9.9295418   9.9295418   9.9295418  17.9961133
 SUMMED SPIN DENSITY           2.98983441
 TOTAL ATOMIC SPINS  :
   2.8939344   0.0320609   0.0320609   0.0320609  -0.0002826
 TTTTTTTTTTTTTTTTTTTTTTTTTTTTTT MOQGAD      TELAPSE       46.76 TCPU       46.78
 TTTTTTTTTTTTTTTTTTTTTTTTTTTTTT SHELLX2     TELAPSE       50.51 TCPU       50.54
 TTTTTTTTTTTTTTTTTTTTTTTTTTTTTT MONMO3      TELAPSE       50.55 TCPU       50.58
 CYC  12 ETOT(AU) -2.278702143508E+03 DETOT  8.55E-07 tst  7.54E-06 PX  5.77E-04
 TTTTTTTTTTTTTTTTTTTTTTTTTTTTTT FDIK        TELAPSE       50.62 TCPU       50.65

    ALPHA      ELECTRONS
 INSULATING STATE - LEVEL SHIFTER    0.30 au
 TOP OF VALENCE BANDS -    BAND     38; K    1; EIG -1.0000000E+00 AU
 BOTTOM OF VIRTUAL BANDS - BAND     39; K    1; EIG  1.0000000E+00 AU

    BETA       ELECTRONS
 INSULATING STATE - LEVEL SHIFTER    0.30 au
 TOP OF VALENCE BANDS -    BAND     35; K    1; EIG -1.0000000E+00 AU
 BOTTOM OF VIRTUAL BANDS - BAND     36; K    1; EIG  1.0000000E+00 AU
 TTTTTTTTTTTTTTTTTTTTTTTTTTTTTT PDIG        TELAPSE       50.64 TCPU       50.67
 CHARGE NORMALIZATION FACTOR   0.99986624
 TOTAL ATOMIC CHARGES:
  25.2150279   9.9296218   9.9296218   9.9296218  17.9961069
 SUMMED SPIN DENSITY           2.98983441
 TOTAL ATOMIC SPINS  :
   2.8942737   0.0319485   0.0319485   0.0319485  -0.0002848
 TTTTTTTTTTTTTTTTTTTTTTTTTTTTTT MOQGAD      TELAPSE       50.66 TCPU       50.68
 TTTTTTTTTTTTTTTTTTTTTTTTTTTTTT SHELLX2     TELAPSE       54.44 TCPU       54.47
 TTTTTTTTTTTTTTTTTTTTTTTTTTTTTT MONMO3      TELAPSE       54.49 TCPU       54.52
 CYC  13 ETOT(AU) -2.278702142305E+03 DETOT  1.20E-06 tst  6.55E-06 PX  3.71E-04
 TTTTTTTTTTTTTTTTTTTTTTTTTTTTTT FDIK        TELAPSE       54.55 TCPU       54.58

    ALPHA      ELECTRONS
 INSULATING STATE - LEVEL SHIFTER    0.30 au
 TOP OF VALENCE BANDS -    BAND     38; K    1; EIG -1.0000000E+00 AU
 BOTTOM OF VIRTUAL BANDS - BAND     39; K    1; EIG  1.0000000E+00 AU

    BETA       ELECTRONS
 INSULATING STATE - LEVEL SHIFTER    0.30 au
 TOP OF VALENCE BANDS -    BAND     35; K    1; EIG -1.0000000E+00 AU
 BOTTOM OF VIRTUAL BANDS - BAND     36; K    1; EIG  1.0000000E+00 AU
 TTTTTTTTTTTTTTTTTTTTTTTTTTTTTT PDIG        TELAPSE       54.57 TCPU       54.60
 CHARGE NORMALIZATION FACTOR   0.99986624
 TOTAL ATOMIC CHARGES:
  25.2148789   9.9296727   9.9296727   9.9296727  17.9961031
 SUMMED SPIN DENSITY           2.98983441
 TOTAL ATOMIC SPINS  :
   2.8944933   0.0318758   0.0318758   0.0318758  -0.0002862
 TTTTTTTTTTTTTTTTTTTTTTTTTTTTTT MOQGAD      TELAPSE       54.59 TCPU       54.62
 TTTTTTTTTTTTTTTTTTTTTTTTTTTTTT SHELLX2     TELAPSE       58.36 TCPU       58.39
 TTTTTTTTTTTTTTTTTTTTTTTTTTTTTT MONMO3      TELAPSE       58.40 TCPU       58.43
 CYC  14 ETOT(AU) -2.278702141305E+03 DETOT  9.99E-07 tst  5.68E-06 PX  2.39E-04
 TTTTTTTTTTTTTTTTTTTTTTTTTTTTTT FDIK        TELAPSE       58.46 TCPU       58.50

    ALPHA      ELECTRONS
 INSULATING STATE - LEVEL SHIFTER    0.30 au
 TOP OF VALENCE BANDS -    BAND     38; K    1; EIG -1.0000000E+00 AU
 BOTTOM OF VIRTUAL BANDS - BAND     39; K    1; EIG  1.0000000E+00 AU

    BETA       ELECTRONS
 INSULATING STATE - LEVEL SHIFTER    0.30 au
 TOP OF VALENCE BANDS -    BAND     35; K    1; EIG -1.0000000E+00 AU
 BOTTOM OF VIRTUAL BANDS - BAND     36; K    1; EIG  1.0000000E+00 AU
 TTTTTTTTTTTTTTTTTTTTTTTTTTTTTT PDIG        TELAPSE       58.48 TCPU       58.52
 CHARGE NORMALIZATION FACTOR   0.99986624
 TOTAL ATOMIC CHARGES:
  25.2147823   9.9297057   9.9297057   9.9297057  17.9961007
 SUMMED SPIN DENSITY           2.98983441
 TOTAL ATOMIC SPINS  :
   2.8946372   0.0318282   0.0318282   0.0318282  -0.0002873
 TTTTTTTTTTTTTTTTTTTTTTTTTTTTTT MOQGAD      TELAPSE       58.50 TCPU       58.53
 TTTTTTTTTTTTTTTTTTTTTTTTTTTTTT SHELLX2     TELAPSE       62.21 TCPU       62.25
 TTTTTTTTTTTTTTTTTTTTTTTTTTTTTT MONMO3      TELAPSE       62.26 TCPU       62.29
 CYC  15 ETOT(AU) -2.278702140602E+03 DETOT  7.03E-07 tst  4.93E-06 PX  1.53E-04
 TTTTTTTTTTTTTTTTTTTTTTTTTTTTTT FDIK        TELAPSE       62.32 TCPU       62.36

    ALPHA      ELECTRONS
 INSULATING STATE - LEVEL SHIFTER    0.30 au
 TOP OF VALENCE BANDS -    BAND     38; K    1; EIG -1.0000000E+00 AU
 BOTTOM OF VIRTUAL BANDS - BAND     39; K    1; EIG  1.0000000E+00 AU

    BETA       ELECTRONS
 INSULATING STATE - LEVEL SHIFTER    0.30 au
 TOP OF VALENCE BANDS -    BAND     35; K    1; EIG -1.0000000E+00 AU
 BOTTOM OF VIRTUAL BANDS - BAND     36; K    1; EIG  1.0000000E+00 AU
 TTTTTTTTTTTTTTTTTTTTTTTTTTTTTT PDIG        TELAPSE       62.34 TCPU       62.38
 CHARGE NORMALIZATION FACTOR   0.99986624
 TOTAL ATOMIC CHARGES:
  25.2147186   9.9297275   9.9297275   9.9297275  17.9960991
 SUMMED SPIN DENSITY           2.98983441
 TOTAL ATOMIC SPINS  :
   2.8947330   0.0317965   0.0317965   0.0317965  -0.0002880
 TTTTTTTTTTTTTTTTTTTTTTTTTTTTTT MOQGAD      TELAPSE       62.36 TCPU       62.39
 TTTTTTTTTTTTTTTTTTTTTTTTTTTTTT SHELLX2     TELAPSE       66.16 TCPU       66.20
 TTTTTTTTTTTTTTTTTTTTTTTTTTTTTT MONMO3      TELAPSE       66.21 TCPU       66.25
 CYC  16 ETOT(AU) -2.278702140150E+03 DETOT  4.52E-07 tst  4.27E-06 PX  9.87E-05
 TTTTTTTTTTTTTTTTTTTTTTTTTTTTTT FDIK        TELAPSE       66.28 TCPU       66.31

    ALPHA      ELECTRONS
 INSULATING STATE - LEVEL SHIFTER    0.30 au
 TOP OF VALENCE BANDS -    BAND     38; K    1; EIG -1.0000000E+00 AU
 BOTTOM OF VIRTUAL BANDS - BAND     39; K    1; EIG  1.0000000E+00 AU

    BETA       ELECTRONS
 INSULATING STATE - LEVEL SHIFTER    0.30 au
 TOP OF VALENCE BANDS -    BAND     35; K    1; EIG -1.0000000E+00 AU
 BOTTOM OF VIRTUAL BANDS - BAND     36; K    1; EIG  1.0000000E+00 AU
 TTTTTTTTTTTTTTTTTTTTTTTTTTTTTT PDIG        TELAPSE       66.30 TCPU       66.34
 CHARGE NORMALIZATION FACTOR   0.99986624
 TOTAL ATOMIC CHARGES:
  25.2146763   9.9297420   9.9297420   9.9297420  17.9960978
 SUMMED SPIN DENSITY           2.98983441
 TOTAL ATOMIC SPINS  :
   2.8947971   0.0317751   0.0317751   0.0317751  -0.0002882
 TTTTTTTTTTTTTTTTTTTTTTTTTTTTTT MOQGAD      TELAPSE       66.31 TCPU       66.35
 TTTTTTTTTTTTTTTTTTTTTTTTTTTTTT SHELLX2     TELAPSE       70.08 TCPU       70.12
 TTTTTTTTTTTTTTTTTTTTTTTTTTTTTT MONMO3      TELAPSE       70.12 TCPU       70.16
 CYC  17 ETOT(AU) -2.278702139877E+03 DETOT  2.73E-07 tst  3.70E-06 PX  6.35E-05
 TTTTTTTTTTTTTTTTTTTTTTTTTTTTTT FDIK        TELAPSE       70.19 TCPU       70.23

    ALPHA      ELECTRONS
 INSULATING STATE - LEVEL SHIFTER    0.30 au
 TOP OF VALENCE BANDS -    BAND     38; K    1; EIG -1.0000000E+00 AU
 BOTTOM OF VIRTUAL BANDS - BAND     39; K    1; EIG  1.0000000E+00 AU

    BETA       ELECTRONS
 INSULATING STATE - LEVEL SHIFTER    0.30 au
 TOP OF VALENCE BANDS -    BAND     35; K    1; EIG -1.0000000E+00 AU
 BOTTOM OF VIRTUAL BANDS - BAND     36; K    1; EIG  1.0000000E+00 AU
 TTTTTTTTTTTTTTTTTTTTTTTTTTTTTT PDIG        TELAPSE       70.21 TCPU       70.25
 CHARGE NORMALIZATION FACTOR   0.99986624
 TOTAL ATOMIC CHARGES:
  25.2146473   9.9297518   9.9297518   9.9297518  17.9960973
 SUMMED SPIN DENSITY           2.98983441
 TOTAL ATOMIC SPINS  :
   2.8948412   0.0317606   0.0317606   0.0317606  -0.0002886
 TTTTTTTTTTTTTTTTTTTTTTTTTTTTTT MOQGAD      TELAPSE       70.23 TCPU       70.26
 TTTTTTTTTTTTTTTTTTTTTTTTTTTTTT SHELLX2     TELAPSE       73.99 TCPU       74.03
 TTTTTTTTTTTTTTTTTTTTTTTTTTTTTT MONMO3      TELAPSE       74.03 TCPU       74.07
 CYC  18 ETOT(AU) -2.278702139729E+03 DETOT  1.48E-07 tst  3.21E-06 PX  4.09E-05
 TTTTTTTTTTTTTTTTTTTTTTTTTTTTTT FDIK        TELAPSE       74.10 TCPU       74.14

    ALPHA      ELECTRONS
 INSULATING STATE - LEVEL SHIFTER    0.30 au
 TOP OF VALENCE BANDS -    BAND     38; K    1; EIG -1.0000000E+00 AU
 BOTTOM OF VIRTUAL BANDS - BAND     39; K    1; EIG  1.0000000E+00 AU

    BETA       ELECTRONS
 INSULATING STATE - LEVEL SHIFTER    0.30 au
 TOP OF VALENCE BANDS -    BAND     35; K    1; EIG -1.0000000E+00 AU
 BOTTOM OF VIRTUAL BANDS - BAND     36; K    1; EIG  1.0000000E+00 AU
 TTTTTTTTTTTTTTTTTTTTTTTTTTTTTT PDIG        TELAPSE       74.12 TCPU       74.16
 CHARGE NORMALIZATION FACTOR   0.99986624
 TOTAL ATOMIC CHARGES:
  25.2146273   9.9297586   9.9297586   9.9297586  17.9960968
 SUMMED SPIN DENSITY           2.98983441
 TOTAL ATOMIC SPINS  :
   2.8948716   0.0317505   0.0317505   0.0317505  -0.0002886
 TTTTTTTTTTTTTTTTTTTTTTTTTTTTTT MOQGAD      TELAPSE       74.14 TCPU       74.18
 TTTTTTTTTTTTTTTTTTTTTTTTTTTTTT SHELLX2     TELAPSE       77.87 TCPU       77.91
 TTTTTTTTTTTTTTTTTTTTTTTTTTTTTT MONMO3      TELAPSE       77.91 TCPU       77.95
 CYC  19 ETOT(AU) -2.278702139660E+03 DETOT  6.89E-08 tst  2.78E-06 PX  2.80E-05
 TTTTTTTTTTTTTTTTTTTTTTTTTTTTTT FDIK        TELAPSE       77.98 TCPU       78.02

    ALPHA      ELECTRONS
 INSULATING STATE - LEVEL SHIFTER    0.30 au
 TOP OF VALENCE BANDS -    BAND     38; K    1; EIG -1.0000000E+00 AU
 BOTTOM OF VIRTUAL BANDS - BAND     39; K    1; EIG  1.0000000E+00 AU

    BETA       ELECTRONS
 INSULATING STATE - LEVEL SHIFTER    0.30 au
 TOP OF VALENCE BANDS -    BAND     35; K    1; EIG -1.0000000E+00 AU
 BOTTOM OF VIRTUAL BANDS - BAND     36; K    1; EIG  1.0000000E+00 AU
 TTTTTTTTTTTTTTTTTTTTTTTTTTTTTT PDIG        TELAPSE       78.00 TCPU       78.04
 CHARGE NORMALIZATION FACTOR   0.99986624
 TOTAL ATOMIC CHARGES:
  25.2146133   9.9297635   9.9297635   9.9297635  17.9960962
 SUMMED SPIN DENSITY           2.98983441
 TOTAL ATOMIC SPINS  :
   2.8948930   0.0317433   0.0317433   0.0317433  -0.0002884
 TTTTTTTTTTTTTTTTTTTTTTTTTTTTTT MOQGAD      TELAPSE       78.02 TCPU       78.06
 TTTTTTTTTTTTTTTTTTTTTTTTTTTTTT SHELLX2     TELAPSE       81.82 TCPU       81.86
 +++ ENERGIES IN A.U. +++
 ::: EXT EL-POLE                                  -1.3431406279104E+03
 ::: EXT EL-SPHEROPOLE                             1.2924074866655E+01
 ::: BIELET ZONE E-E                               1.8762312890831E+03
 ::: TOTAL E-E                                     5.4601473603933E+02
 ::: TOTAL E-N + N-E                              -4.7367648490113E+03
 ::: TOTAL N-N                                    -3.6562399838754E+02
 ::: KINETIC ENERGY                                2.2776719717224E+03
 ::: TOTAL   ENERGY                               -2.2787021396372E+03
 ::: VIRIAL COEFFICIENT                            9.9977390620487E-01
 TTTTTTTTTTTTTTTTTTTTTTTTTTTTTT MONMO3      TELAPSE       81.86 TCPU       81.90
 CYC  20 ETOT(AU) -2.278702139637E+03 DETOT  2.27E-08 tst  2.41E-06 PX  2.80E-05

 == SCF ENDED - CONVERGENCE ON ENERGY      E(AU) -2.2787021396372E+03 CYCLES  20

 TOTAL ENERGY(HF)(AU)(  20) -2.2787021396372E+03 DE 2.3E-08 tst 2.4E-06 PX 2.8E-05

 NEIGHBORS OF THE NON-EQUIVALENT ATOMS

 N = NUMBER OF NEIGHBORS AT DISTANCE R
    ATOM  N     R/ANG      R/AU   NEIGHBORS (ATOM LABELS AND CELL INDICES)
   1 CO   6     2.0355     3.8465    2 F    0 0 0    2 F   -1 0 0    3 F    0 0 0
                                     3 F    0-1 0    4 F    0 0 0    4 F    0 0-1
   1 CO   8     3.5256     6.6624    5 K    0 0 0    5 K   -1 0 0    5 K    0-1 0
                                     5 K    0 0-1    5 K   -1-1 0    5 K   -1 0-1
                                     5 K    0-1-1    5 K   -1-1-1
   1 CO   6     4.0710     7.6931    1 CO  -1 0 0    1 CO   1 0 0    1 CO   0-1 0
                                     1 CO   0 1 0    1 CO   0 0-1    1 CO   0 0 1
   1 CO  24     4.5515     8.6011    2 F    0 1 0    2 F    0-1 0    2 F    0 0 1
                                     2 F    0 0-1    2 F   -1-1 0    2 F   -1 0-1
                                     2 F   -1 0 1    2 F   -1 1 0    3 F    0 0 1
                                     3 F    0 0-1    3 F    1 0 0    3 F   -1 0 0
                                     3 F    0-1-1    3 F   -1-1 0    3 F    1-1 0
                                     3 F    0-1 1    4 F    1 0 0    4 F   -1 0 0
                                     4 F    0 1 0    4 F    0-1 0    4 F   -1 0-1
                                     4 F    0-1-1    4 F    0 1-1    4 F    1 0-1
   1 CO  12     5.7573    10.8797    1 CO  -1-1 0    1 CO   1 1 0    1 CO  -1 0-1
                                     1 CO   1 0 1    1 CO  -1 0 1    1 CO   1 0-1
                                     1 CO  -1 1 0    1 CO   1-1 0    1 CO   0-1-1
                                     1 CO   0 1 1    1 CO   0-1 1    1 CO   0 1-1
   1 CO  30     6.1065    11.5396    2 F    1 0 0    2 F    0 1 1    2 F    0-1-1
                                     2 F    0 1-1    2 F    0-1 1    2 F   -1-1-1
                                     2 F   -1-1 1    2 F   -1 1-1    2 F   -1 1 1
                                     2 F   -2 0 0    3 F    0 1 0    3 F    1 0 1
                                     3 F   -1 0-1    3 F   -1 0 1    3 F    1 0-1
                                     3 F   -1-1-1    3 F    1-1-1    3 F   -1-1 1
                                     3 F    1-1 1    3 F    0-2 0    4 F    0 0 1
                                     4 F    1 1 0    4 F   -1-1 0    4 F    1-1 0
                                     4 F   -1 1 0    4 F   -1-1-1    4 F   -1 1-1
                                     4 F    1-1-1    4 F    1 1-1    4 F    0 0-2

   2 F    2     2.0355     3.8465    1 CO   0 0 0    1 CO   1 0 0
   2 F    8     2.8786     5.4398    3 F    0 0 0    3 F    1 0 0    3 F    0-1 0
                                     3 F    1-1 0    4 F    0 0 0    4 F    0 0-1
                                     4 F    1 0 0    4 F    1 0-1
   2 F    4     2.8786     5.4398    5 K    0 0 0    5 K    0-1 0    5 K    0 0-1
                                     5 K    0-1-1
   2 F    6     4.0710     7.6931    2 F   -1 0 0    2 F    1 0 0    2 F    0-1 0
                                     2 F    0 1 0    2 F    0 0-1    2 F    0 0 1
   2 F    8     4.5515     8.6011    1 CO   0-1 0    1 CO   0 1 0    1 CO   0 0-1
                                     1 CO   0 0 1    1 CO   1 1 0    1 CO   1 0 1
                                     1 CO   1 0-1    1 CO   1-1 0
   2 F   16     4.9859     9.4221    3 F    0 0 1    3 F    0 0-1    3 F    1 0 1
                                     3 F    1 0-1    3 F    0-1-1    3 F    0-1 1
                                     3 F    1-1 1    3 F    1-1-1    4 F    0-1 0
                                     4 F    0 1 0    4 F    0-1-1    4 F    0 1-1
                                     4 F    1 1 0    4 F    1-1 0    4 F    1-1-1
                                     4 F    1 1-1

   5 K   12     2.8786     5.4398    2 F    0 0 0    2 F    0 1 0    2 F    0 0 1
                                     2 F    0 1 1    3 F    0 0 0    3 F    0 0 1
                                     3 F    1 0 0    3 F    1 0 1    4 F    0 0 0
                                     4 F    1 0 0    4 F    0 1 0    4 F    1 1 0
   5 K    8     3.5256     6.6624    1 CO   0 0 0    1 CO   1 0 0    1 CO   0 1 0
                                     1 CO   0 0 1    1 CO   1 1 0    1 CO   1 0 1
                                     1 CO   0 1 1    1 CO   1 1 1
   5 K    6     4.0710     7.6931    5 K   -1 0 0    5 K    1 0 0    5 K    0-1 0
                                     5 K    0 1 0    5 K    0 0-1    5 K    0 0 1
   5 K   24     4.9859     9.4221    2 F   -1 0 0    2 F    1 0 0    2 F    1 1 0
                                     2 F    1 0 1    2 F   -1 0 1    2 F   -1 1 0
                                     2 F    1 1 1    2 F   -1 1 1    3 F    0-1 0
                                     3 F    0 1 0    3 F    0 1 1    3 F    1 1 0
                                     3 F    1-1 0    3 F    0-1 1    3 F    1 1 1
                                     3 F    1-1 1    4 F    0 0-1    4 F    0 0 1
                                     4 F    1 0 1    4 F    0 1 1    4 F    0 1-1
                                     4 F    1 0-1    4 F    1 1 1    4 F    1 1-1
   5 K   12     5.7573    10.8797    5 K   -1-1 0    5 K    1 1 0    5 K   -1 0-1
                                     5 K    1 0 1    5 K   -1 0 1    5 K    1 0-1
                                     5 K   -1 1 0    5 K    1-1 0    5 K    0-1-1
                                     5 K    0 1 1    5 K    0-1 1    5 K    0 1-1
   5 K   24     6.4368    12.1638    2 F    0-1 0    2 F    0 0-1    2 F    0-1 1
                                     2 F    0 1-1    2 F    0 2 0    2 F    0 0 2
                                     2 F    0 2 1    2 F    0 1 2    3 F    0 0-1
                                     3 F   -1 0 0    3 F    1 0-1    3 F   -1 0 1
                                     3 F    0 0 2    3 F    2 0 0    3 F    1 0 2
                                     3 F    2 0 1    4 F   -1 0 0    4 F    0-1 0
                                     4 F   -1 1 0    4 F    1-1 0    4 F    2 0 0
                                     4 F    0 2 0    4 F    2 1 0    4 F    1 2 0

 TTTTTTTTTTTTTTTTTTTTTTTTTTTTTT AFTER FIRST TELAPSE       81.86 TCPU       81.91
 MMMMMMMMMMMMMMMMMMMMMMMMMMMMMMMMMMMMMMMMMMMMMMMMMMMMMMMMMMMMMMMMMMMMMMMMMMMMMMM
     ALPHA+BETA ELECTRONS
 MULLIKEN POPULATION ANALYSIS - NO. OF ELECTRONS   73.000000

  ATOM    Z CHARGE  A.O. POPULATION

   1 CO  27 25.215  1.999  1.887  2.063  2.063  2.063  0.349  0.588  0.588
                    0.588  1.313  1.025  1.025  1.025  0.463  0.331  0.331
                    0.331  0.952  1.457  1.457  0.952  1.457  0.110  0.229
                    0.229  0.110  0.229
   2 F    9  9.930  1.999  0.814  0.990  1.049  1.049  0.992  0.686  0.676
                    0.676  0.191  0.286  0.262  0.262
   3 F    9  9.930  1.999  0.814  1.049  0.990  1.049  0.992  0.676  0.686
                    0.676  0.191  0.262  0.286  0.262
   4 F    9  9.930  1.999  0.814  1.049  1.049  0.990  0.992  0.676  0.676
                    0.686  0.191  0.262  0.262  0.286
   5 K   19 17.996  2.000  1.985  2.030  2.030  2.030  0.798  1.055  1.055
                    1.055  0.938  0.563  0.563  0.563  0.284  0.349  0.349
                    0.349

  ATOM    Z CHARGE  SHELL POPULATION

   1 CO  27 25.215  1.999  8.075  2.113  4.389  1.457  6.275  0.906
   2 F    9  9.930  1.999  3.901  3.029  1.000
   3 F    9  9.930  1.999  3.901  3.029  1.000
   4 F    9  9.930  1.999  3.901  3.029  1.000
   5 K   19 17.996  2.000  8.076  3.963  2.627  1.331

 OVERLAP POPULATION CONDENSED TO ATOMS FOR FIRST   6 NEIGHBORS

 ATOM A   1 CO   ATOM B     CELL      R(AB)/AU R(AB)/ANG    OVPOP(AB)
                  2 F    (  0  0  0)     3.847     2.035     0.002
                  5 K    (  0  0  0)     6.662     3.526     0.000
                  1 CO   ( -1  0  0)     7.693     4.071     0.000
                  2 F    (  0  1  0)     8.601     4.552     0.000
                  1 CO   ( -1 -1  0)    10.880     5.757     0.000
                  2 F    (  1  0  0)    11.540     6.106     0.000

 ATOM A   2 F    ATOM B     CELL      R(AB)/AU R(AB)/ANG    OVPOP(AB)
                  1 CO   (  0  0  0)     3.847     2.035     0.002
                  3 F    (  0  0  0)     5.440     2.879     0.001
                  5 K    (  0  0  0)     5.440     2.879    -0.003
                  2 F    ( -1  0  0)     7.693     4.071    -0.001
                  1 CO   (  0 -1  0)     8.601     4.552     0.000
                  3 F    (  0  0  1)     9.422     4.986     0.000

 ATOM A   5 K    ATOM B     CELL      R(AB)/AU R(AB)/ANG    OVPOP(AB)
                  2 F    (  0  0  0)     5.440     2.879    -0.003
                  1 CO   (  0  0  0)     6.662     3.526     0.000
                  5 K    ( -1  0  0)     7.693     4.071     0.000
                  2 F    ( -1  0  0)     9.422     4.986     0.000
                  5 K    ( -1 -1  0)    10.880     5.757     0.000
                  2 F    (  0 -1  0)    12.164     6.437     0.000
 TTTTTTTTTTTTTTTTTTTTTTTTTTTTTT AFTER FIRST TELAPSE       81.86 TCPU       81.91
 MMMMMMMMMMMMMMMMMMMMMMMMMMMMMMMMMMMMMMMMMMMMMMMMMMMMMMMMMMMMMMMMMMMMMMMMMMMMMMM
     ALPHA-BETA ELECTRONS
 MULLIKEN POPULATION ANALYSIS - NO. OF ELECTRONS    2.989834

  ATOM    Z CHARGE  A.O. POPULATION

   1 CO  27  2.895  0.000  0.002 -0.001 -0.001 -0.001 -0.001  0.007  0.007
                    0.007  0.011  0.011  0.011  0.011 -0.010 -0.016 -0.016
                   -0.016  0.925  0.369  0.369  0.925  0.369  0.041 -0.050
                   -0.050  0.041 -0.050
   2 F    9  0.032  0.000  0.006  0.025  0.009  0.009  0.001  0.003  0.002
                    0.002 -0.005 -0.009 -0.005 -0.005
   3 F    9  0.032  0.000  0.006  0.009  0.025  0.009  0.001  0.002  0.003
                    0.002 -0.005 -0.005 -0.009 -0.005
   4 F    9  0.032  0.000  0.006  0.009  0.009  0.025  0.001  0.002  0.002
                    0.003 -0.005 -0.005 -0.005 -0.009
   5 K   19  0.000  0.000  0.000  0.000  0.000  0.000  0.000  0.000  0.000
                    0.000  0.000  0.000  0.000  0.000  0.000  0.000  0.000
                    0.000

  ATOM    Z CHARGE  SHELL POPULATION

   1 CO  27  2.895  0.000 -0.002  0.020  0.045 -0.058  2.957 -0.068
   2 F    9  0.032  0.000  0.048  0.007 -0.023
   3 F    9  0.032  0.000  0.048  0.007 -0.023
   4 F    9  0.032  0.000  0.048  0.007 -0.023
   5 K   19  0.000  0.000  0.000 -0.001  0.000  0.000

 OVERLAP POPULATION CONDENSED TO ATOMS FOR FIRST   6 NEIGHBORS

 ATOM A   1 CO   ATOM B     CELL      R(AB)/AU R(AB)/ANG    OVPOP(AB)
                  2 F    (  0  0  0)     3.847     2.035    -0.017
                  5 K    (  0  0  0)     6.662     3.526     0.000
                  1 CO   ( -1  0  0)     7.693     4.071     0.000
                  2 F    (  0  1  0)     8.601     4.552     0.000
                  1 CO   ( -1 -1  0)    10.880     5.757     0.000
                  2 F    (  1  0  0)    11.540     6.106     0.000

 ATOM A   2 F    ATOM B     CELL      R(AB)/AU R(AB)/ANG    OVPOP(AB)
                  1 CO   (  0  0  0)     3.847     2.035    -0.017
                  3 F    (  0  0  0)     5.440     2.879    -0.001
                  5 K    (  0  0  0)     5.440     2.879     0.000
                  2 F    ( -1  0  0)     7.693     4.071     0.000
                  1 CO   (  0 -1  0)     8.601     4.552     0.000
                  3 F    (  0  0  1)     9.422     4.986     0.000

 ATOM A   5 K    ATOM B     CELL      R(AB)/AU R(AB)/ANG    OVPOP(AB)
                  2 F    (  0  0  0)     5.440     2.879     0.000
                  1 CO   (  0  0  0)     6.662     3.526     0.000
                  5 K    ( -1  0  0)     7.693     4.071     0.000
                  2 F    ( -1  0  0)     9.422     4.986     0.000
                  5 K    ( -1 -1  0)    10.880     5.757     0.000
                  2 F    (  0 -1  0)    12.164     6.437     0.000
 EIGENVECTORS IN FORTRAN UNIT  8
 TTTTTTTTTTTTTTTTTTTTTTTTTTTTTT END         TELAPSE       81.88 TCPU       81.92
 EEEEEEEEEE TERMINATION  DATE 09 12 2014 TIME 10:08:02.7
