/home/erba/Mitoli/pub/bin/Linux-ifort_openmpi_i64_clut/std/Pcrystal
/scratch/alessandro/tmp_p23089
script started on node80
MgO supercell 2x2x2 - PBE/pob-DVZVP-rev2 - QHA
CRYSTAL
0 0 0
225
4.26844350
2
 12 0.    0.    0.
  8 0.5   0.5   0.5
SCELPHONO
2 0 0
0 2 0
0 0 2
QHA
END
BASISSET
POB-DZVP-REV2
DFT
PBE
END
SHRINK
8 8
TOLINTEG
8 8 8 8 16
TOLDEE
10
END
************************************************
ANOTHER DROLLERY FILLED RUN OF THE CRYSTAL CODE!
************************************************
Thu 12 Sep 2024 03:19:39 PM CEST
 PROCESS            8  OF           20  WORKING
 PROCESS           10  OF           20  WORKING
 PROCESS           12  OF           20  WORKING
 PROCESS           14  OF           20  WORKING
 PROCESS           16  OF           20  WORKING
 PROCESS            0  OF           20  WORKING
 PROCESS            9  OF           20  WORKING
 PROCESS           15  OF           20  WORKING
 PROCESS           18  OF           20  WORKING
 PROCESS            1  OF           20  WORKING
 PROCESS            3  OF           20  WORKING
 PROCESS            5  OF           20  WORKING
 PROCESS            6  OF           20  WORKING
 PROCESS            7  OF           20  WORKING
 PROCESS           11  OF           20  WORKING
 PROCESS           13  OF           20  WORKING
 PROCESS           17  OF           20  WORKING
 PROCESS           19  OF           20  WORKING
 PROCESS            4  OF           20  WORKING

         
 *******************************************************************************
 *                                                                             *
 *                               CRYSTAL23                                     *
 *                      public : 1.0.1 - October 2022                          *
 *                       HTTP://WWW.CRYSTAL.UNITO.IT                           *
 *                                                                             *
 *                              MAIN AUTHORS                                   *
 *                                                                             *
 *  R. DOVESI(1,11), V.R. SAUNDERS(2), C. ROETTI(1,11), R. ORLANDO(1,11),      *
 *  C.M. ZICOVICH-WILSON(1,3), F. PASCALE(4), B. CIVALLERI(1,11),              *
 *  K. DOLL(5), N.M. HARRISON(6), I.J. BUSH(7), Ph. D'ARCO(8),                 *
 *  M. LLUNELL(9), M. CAUSA'(10), Y. NOEL(8), L. MASCHIO(1,11), A. ERBA(1,11)  *
 *  M. RE'RAT(14), S. CASASSA(1,11), B.G. SEARLE(2), J.K. DESMARAIS(1)         *
 *                                                                             *
 *        CONTRIBUTIONS TO THE CODE HAVE ALSO BEEN GIVEN BY                    *
 *                                                                             *
 *  M. FERRABONE(1,11), M. DE LA PIERRE(1,11), M. FERRERO(1,11),               *
 *  J. BAIMA(1,11), E. ALBANESE(1,11), M.F. PEINTINGER(12), R. BAST(13),       *
 *  B. KIRTMAN(15), V. LACIVITA(1,11), R. DEMICHELIS(1,16)                     *
 *  G. BRANDEBURG(17), S. SALUSTRO(1,11), G. SANSONE(1,11)                     *
 *  M.T. RUGGIERO(18), L.E. DAGA(1), L. DONA'(1), A. COSSARD(1)                *
 *                                                                             *
 * (1) THEORETICAL CHEMISTRY GROUP - UNIVERSITA' DI TORINO - TORINO (ITALY)    *
 * (2) SCIENTIFIC COMPUTING DEPARTMENT - STFC DARESBURY (UK)                   *
 * (3) UNIVERSIDAD AUTONOMA DEL ESTADO DE MORELOS - CUERNAVACA (MEXICO)        *
 * (4) UNIVERSITE' DE LORRAINE - NANCY (FRANCE)                                *
 * (5) UNIVERSITAET STUTTGART- STUTTGART (GERMANY)                             *
 * (6) IMPERIAL COLLEGE - LONDON (UK)                                          *
 * (7) SCIENTIFIC COMPUTING DEPARTMENT - STFC RAL (UK)                         *
 * (8) UPMC - SORBONNE UNIVERSITES - PARIS (FRANCE)                            *
 * (9) UNIVERSIDAD DE BARCELONA - BARCELONA (SPAIN)                            *
 *(10) UNIVERSITA' DI NAPOLI "FEDERICO II" - NAPOLI (ITALY)                    *
 *(11) NIS - NANOSTRUCTURED INTERFACES AND SURFACES - TORINO (ITALY)           *
 *(12) MPI FUER CHEMISCHE ENERGIEKONVERSION - MUELHEIM AN DER RUHR (GERMANY)   *
 *(13) UNIVERSITY OF TROMSO - TROMSO (NORWAY)                                  *
 *(14) UNIVERSITE' DE PAU ET DES PAYS DE L'ADOUR - PAU (FRANCE)                *
 *(15) UNIVERSITY OF CALIFORNIA SANTA BARBARA - SANTA BARBARA (USA)            *
 *(16) CURTIN UNIVERSITY - PERTH (AUSTRALIA)                                   *
 *(17) UNIVERSITY COLLEGE LONDON - LONDON (UK)                                 *
 *(18) UNIVERSITY OF VERMONT - BURLINGTON (USA)                                *
 *                                                                             *
 *******************************************************************************
 EEEEEEEEEE STARTING  DATE 12 09 2024 TIME 15:19:39.8
 MgO supercell 2x2x2 - PBE/pob-DVZVP-rev2 - QHA                                  
 PROCESS            2  OF           20  WORKING

 CRYSTAL CALCULATION
 (INPUT ACCORDING TO THE INTERNATIONAL TABLES FOR X-RAY CRYSTALLOGRAPHY)
 CRYSTAL FAMILY                       :  CUBIC       
 CRYSTAL CLASS  (GROTH - 1921)        :  CUBIC HEXAKISOCTAHEDRAL              

 SPACE GROUP (CENTROSYMMETRIC)        :  F M 3 M         

 LATTICE PARAMETERS  (ANGSTROMS AND DEGREES) - CONVENTIONAL CELL
        A           B           C        ALPHA        BETA       GAMMA
     4.26844     4.26844     4.26844    90.00000    90.00000    90.00000


 NUMBER OF IRREDUCIBLE ATOMS IN THE CONVENTIONAL CELL:    2

 INPUT COORDINATES

 ATOM AT. N.              COORDINATES
   1  12     0.000000000000E+00  0.000000000000E+00  0.000000000000E+00
   2   8     5.000000000000E-01  5.000000000000E-01  5.000000000000E-01

 *******************************************************************************

 << INFORMATION >>: FROM NOW ON, ALL COORDINATES REFER TO THE PRIMITIVE CELL

 *******************************************************************************

 LATTICE PARAMETERS  (ANGSTROMS AND DEGREES) - PRIMITIVE CELL
       A          B          C        ALPHA      BETA     GAMMA        VOLUME
    3.01825    3.01825    3.01825    60.00000  60.00000  60.00000     19.442344

 COORDINATES OF THE EQUIVALENT ATOMS (FRACTIONAL UNITS)

 N. ATOM EQUIV AT. N.          X                  Y                  Z

   1   1   1   12 MG    0.00000000000E+00  0.00000000000E+00  0.00000000000E+00

   2   2   1    8 O    -5.00000000000E-01 -5.00000000000E-01 -5.00000000000E-01

 NUMBER OF SYMMETRY OPERATORS         :   48
 *******************************************************************************
 * GEOMETRY EDITING - INPUT COORDINATES ARE GIVEN IN ANGSTROM         
 *******************************************************************************

 GEOMETRY NOW FULLY CONSISTENT WITH THE GROUP

 NO SYMMOPS WITH FINITE TRANSLATIONAL COMPONENT

 GCALCO - MAX INDICES DIRECT LATTICE VECTOR    14    14    14
 NO.OF VECTORS CREATED 6999 STARS  105 RMAX    31.94211 BOHR

 *******************************************************************************
 * SUPERCELL OPTION
 *******************************************************************************


        EXPANSION MATRIX OF PRIMITIVE CELL
 E1     2.000     0.000     0.000
 E2     0.000     2.000     0.000
 E3     0.000     0.000     2.000

 NUMBER OF ATOMS PER SUPERCELL    16

        DIRECT LATTICE VECTORS COMPONENTS (ANGSTROM)
 B1     0.000     4.268     4.268
 B2     4.268     0.000     4.268
 B3     4.268     4.268     0.000

 LATTICE PARAMETERS  (ANGSTROM AND DEGREES)
       A          B          C         ALPHA     BETA     GAMMA        VOLUME
    6.03649    6.03649    6.03649    60.00000  60.00000  60.00000    155.538751


 **** ATOMS BELONGING TO THE SUPERCELL
 LABEL AT.NO.      COORDINATES (ANGSTROM AND FRACTIONAL)
     1    12     0.0000     0.0000     0.0000     0.0000     0.0000     0.0000
     2    12    -2.1342    -2.1342     0.0000     0.0000     0.0000    -0.5000
     3    12    -2.1342     0.0000    -2.1342     0.0000    -0.5000     0.0000
     4    12    -4.2684    -2.1342    -2.1342     0.0000    -0.5000    -0.5000
     5    12     0.0000    -2.1342    -2.1342    -0.5000     0.0000     0.0000
     6    12    -2.1342    -4.2684    -2.1342    -0.5000     0.0000    -0.5000
     7    12    -2.1342    -2.1342    -4.2684    -0.5000    -0.5000     0.0000
     8    12    -4.2684    -4.2684    -4.2684    -0.5000    -0.5000    -0.5000
     9     8     2.1342     2.1342     2.1342     0.2500     0.2500     0.2500
    10     8     0.0000     0.0000     2.1342     0.2500     0.2500    -0.2500
    11     8     0.0000     2.1342     0.0000     0.2500    -0.2500     0.2500
    12     8    -2.1342     0.0000     0.0000     0.2500    -0.2500    -0.2500
    13     8     2.1342     0.0000     0.0000    -0.2500     0.2500     0.2500
    14     8     0.0000    -2.1342     0.0000    -0.2500     0.2500    -0.2500
    15     8     0.0000     0.0000    -2.1342    -0.2500    -0.2500     0.2500
    16     8    -2.1342    -2.1342    -2.1342    -0.2500    -0.2500    -0.2500

 **************************** SUPERCELL GENERATED ****************************

 **** ATOMS IN THE SUPERCELL REORDERED FOR PHONON CALCULATION
      ATOMS IN THE SMALL CELL ON TOP

 LABEL AT.NO.      COORDINATES (ANGSTROM)
     1    12     0.0000     0.0000     0.0000
     2     8     2.1342     2.1342     2.1342
     3    12    -2.1342     0.0000    -2.1342
     4    12    -4.2684    -2.1342    -2.1342
     5    12     0.0000    -2.1342    -2.1342
     6    12    -2.1342    -4.2684    -2.1342
     7    12    -2.1342    -2.1342    -4.2684
     8    12    -4.2684    -4.2684    -4.2684
     9    12    -2.1342    -2.1342     0.0000
    10     8     0.0000     0.0000     2.1342
    11     8     0.0000     2.1342     0.0000
    12     8    -2.1342     0.0000     0.0000
    13     8     2.1342     0.0000     0.0000
    14     8     0.0000    -2.1342     0.0000
    15     8     0.0000     0.0000    -2.1342
    16     8    -2.1342    -2.1342    -2.1342
 INFORMATION **** NEW DEFAULT **** FINALRUN 4 FOR GEOMETRY OPTIMIZATIONS
 INFORMATION **** NEW DEFAULT **** OPTGEOM OPTIMIZES BOTH ATOMIC COORDINATES AND CELL PARAMETERS
 INFORMATION **** NEW DEFAULT **** TOL. ON ATOMIC DISP TO REDEFINE REF. GEOMETRY: 0.8 Angs
 INFORMATION **** NEW DEFAULT **** N POINTS TO REDEFINE REF. GEOMETRY: N OF OPT DEGS OF FREEDOM
 INFORMATION **** NEW DEFAULT **** TOL. ON ENERGY TO REDEFINE REF. GEOMETRY: 10**-3*(5*N. ATOMS)

 IMPORTANT INFORMATION:
 THE COORDINATE SYSTEM ADOPTED IN THE OPTIMIZATION IS NOT IN
 GENERAL HOMOGENEOUS UNITS. FOR THIS REASON THE GRADIENT AND 
 HESSIAN MATRIX IN TERMS OF THIS SYSTEM ARE GIVEN WITHOUT
 UNITS. FOR MORE DETAILS SEE THE MANUAL.

 INITIAL TRUST RADIUS         0.50000 MAXIMUM TRUST RADIUS               4.00000
 MAXIMUM GRADIENT COMPONENT   0.00045 MAXIMUM DISPLACEMENT COMPONENT     0.00180
 R.M.S. OF GRADIENT COMPONENT 0.00030 R.M.S. OF DISPLACEMENT COMPONENTS  0.00120
 THRESHOLD ON ENERGY CHANGE 0.100E-06 EXTRAPOLATING POLYNOMIAL ORDER           2
 MAXIMUM ALLOWED NUMBER OF STEPS   -1 SORTING OF ENERGY POINTS:               NO
 ANALYTICAL  GRADIENT                 HESSIAN UPDATING                      BFGS
 STEP SIZE NUMERICAL GRADIENT 0.00100
 INITIAL HESSIAN MATRIX: SCHLEGEL MODEL 2
 *******************************************************************************


 EOSEOSEOSEOSEOSEOSEOSEOSEOSEOSEOSEOSEOSEOSEOSEOSEOSEOSEOSEOSEOSEOSEOSEOSEOSEOS

                       EQUATION OF STATE CALCULATION

 INFORMATION **** TOLDEX **** CONVERGENCE CRITERION FOR RMS DISPLACEMENT MODIFIED  6.200000E-04
 INFORMATION **** TOLDEG **** MODIFY CONVERGENCE CRITERION FOR RMS GRADIENT  3.000000E-04
 INFORMATION **** TOLDEE **** CONVERGENCE CRITERION FOR ENERGY MODIFIED: 10**-           9

 GCALCO - MAX INDICES DIRECT LATTICE VECTOR    14    14    14
 NO.OF VECTORS CREATED 6999 STARS  105 RMAX   120.72367 BOHR

 GEOMETRY FOR WAVE FUNCTION - DIMENSIONALITY OF THE SYSTEM    3
 (NON PERIODIC DIRECTION: LATTICE PARAMETER FORMALLY SET TO 500)
 *******************************************************************************
 LATTICE PARAMETERS (ANGSTROMS AND DEGREES) - BOHR = 0.5291772083 ANGSTROM
 PRIMITIVE CELL - CENTRING CODE 1/0 VOLUME=   155.538751 - DENSITY  3.415 g/cm^3
         A              B              C           ALPHA      BETA       GAMMA 
     6.03649069     6.03649069     6.03649069    60.000000  60.000000  60.000000
 *******************************************************************************
 ATOMS IN THE ASYMMETRIC UNIT    5 - ATOMS IN THE UNIT CELL:   16
     ATOM                 X/A                 Y/B                 Z/C    
 *******************************************************************************
      1 T  12 MG    0.000000000000E+00  0.000000000000E+00  0.000000000000E+00
      2 T   8 O     2.500000000000E-01  2.500000000000E-01  2.500000000000E-01
      3 T  12 MG    0.000000000000E+00 -5.000000000000E-01  0.000000000000E+00
      4 F  12 MG   -2.220446049250E-16 -5.000000000000E-01 -5.000000000000E-01
      5 F  12 MG   -5.000000000000E-01  0.000000000000E+00  0.000000000000E+00
      6 F  12 MG   -5.000000000000E-01 -2.775557561563E-17 -5.000000000000E-01
      7 F  12 MG   -5.000000000000E-01 -5.000000000000E-01  0.000000000000E+00
      8 T  12 MG   -5.000000000000E-01 -5.000000000000E-01 -5.000000000000E-01
      9 F  12 MG    0.000000000000E+00  0.000000000000E+00 -5.000000000000E-01
     10 T   8 O     2.500000000000E-01  2.500000000000E-01 -2.500000000000E-01
     11 F   8 O     2.500000000000E-01 -2.500000000000E-01  2.500000000000E-01
     12 F   8 O     2.500000000000E-01 -2.500000000000E-01 -2.500000000000E-01
     13 F   8 O    -2.500000000000E-01  2.500000000000E-01  2.500000000000E-01
     14 F   8 O    -2.500000000000E-01  2.500000000000E-01 -2.500000000000E-01
     15 F   8 O    -2.500000000000E-01 -2.500000000000E-01  2.500000000000E-01
     16 F   8 O    -2.500000000000E-01 -2.500000000000E-01 -2.500000000000E-01

 T = ATOM BELONGING TO THE ASYMMETRIC UNIT

 ****   48 SYMMOPS - TRANSLATORS IN FRACTIONAL UNITS
 **** MATRICES AND TRANSLATORS IN THE CRYSTALLOGRAPHIC REFERENCE FRAME
   V INV                    ROTATION MATRICES                   TRANSLATORS
   1   1  1.00  0.00  0.00  0.00  1.00  0.00  0.00  0.00  1.00  0.00  0.00  0.00
   2   2  0.00  1.00  0.00  1.00  0.00  0.00 -1.00 -1.00 -1.00  0.00  0.00  0.00
   3   3 -1.00 -1.00 -1.00  0.00  0.00  1.00  0.00  1.00  0.00  0.00  0.00  0.00
   4   4  0.00  0.00  1.00 -1.00 -1.00 -1.00  1.00  0.00  0.00  0.00  0.00  0.00
   5   6  0.00  0.00  1.00  1.00  0.00  0.00  0.00  1.00  0.00  0.00  0.00  0.00
   6   5  0.00  1.00  0.00  0.00  0.00  1.00  1.00  0.00  0.00  0.00  0.00  0.00
   7   8  1.00  0.00  0.00  0.00  0.00  1.00 -1.00 -1.00 -1.00  0.00  0.00  0.00
   8   7  1.00  0.00  0.00 -1.00 -1.00 -1.00  0.00  1.00  0.00  0.00  0.00  0.00
   9  10 -1.00 -1.00 -1.00  0.00  1.00  0.00  1.00  0.00  0.00  0.00  0.00  0.00
  10   9  0.00  0.00  1.00  0.00  1.00  0.00 -1.00 -1.00 -1.00  0.00  0.00  0.00
  11  12  0.00  1.00  0.00 -1.00 -1.00 -1.00  0.00  0.00  1.00  0.00  0.00  0.00
  12  11 -1.00 -1.00 -1.00  1.00  0.00  0.00  0.00  0.00  1.00  0.00  0.00  0.00
  13  13  0.00 -1.00  0.00 -1.00  0.00  0.00  0.00  0.00 -1.00  0.00  0.00  0.00
  14  14 -1.00  0.00  0.00  0.00 -1.00  0.00  1.00  1.00  1.00  0.00  0.00  0.00
  15  16  0.00  0.00 -1.00  1.00  1.00  1.00  0.00 -1.00  0.00  0.00  0.00  0.00
  16  15  1.00  1.00  1.00  0.00  0.00 -1.00 -1.00  0.00  0.00  0.00  0.00  0.00
  17  17 -1.00  0.00  0.00  0.00  0.00 -1.00  0.00 -1.00  0.00  0.00  0.00  0.00
  18  18  0.00  0.00 -1.00  0.00 -1.00  0.00 -1.00  0.00  0.00  0.00  0.00  0.00
  19  21  0.00  0.00 -1.00 -1.00  0.00  0.00  1.00  1.00  1.00  0.00  0.00  0.00
  20  22  1.00  1.00  1.00 -1.00  0.00  0.00  0.00 -1.00  0.00  0.00  0.00  0.00
  21  19  0.00 -1.00  0.00  1.00  1.00  1.00 -1.00  0.00  0.00  0.00  0.00  0.00
  22  20  0.00 -1.00  0.00  0.00  0.00 -1.00  1.00  1.00  1.00  0.00  0.00  0.00
  23  23  1.00  1.00  1.00  0.00 -1.00  0.00  0.00  0.00 -1.00  0.00  0.00  0.00
  24  24 -1.00  0.00  0.00  1.00  1.00  1.00  0.00  0.00 -1.00  0.00  0.00  0.00
  25  25 -1.00  0.00  0.00  0.00 -1.00  0.00  0.00  0.00 -1.00  0.00  0.00  0.00
  26  26  0.00 -1.00  0.00 -1.00  0.00  0.00  1.00  1.00  1.00  0.00  0.00  0.00
  27  27  1.00  1.00  1.00  0.00  0.00 -1.00  0.00 -1.00  0.00  0.00  0.00  0.00
  28  28  0.00  0.00 -1.00  1.00  1.00  1.00 -1.00  0.00  0.00  0.00  0.00  0.00
  29  30  0.00  0.00 -1.00 -1.00  0.00  0.00  0.00 -1.00  0.00  0.00  0.00  0.00
  30  29  0.00 -1.00  0.00  0.00  0.00 -1.00 -1.00  0.00  0.00  0.00  0.00  0.00
  31  32 -1.00  0.00  0.00  0.00  0.00 -1.00  1.00  1.00  1.00  0.00  0.00  0.00
  32  31 -1.00  0.00  0.00  1.00  1.00  1.00  0.00 -1.00  0.00  0.00  0.00  0.00
  33  34  1.00  1.00  1.00  0.00 -1.00  0.00 -1.00  0.00  0.00  0.00  0.00  0.00
  34  33  0.00  0.00 -1.00  0.00 -1.00  0.00  1.00  1.00  1.00  0.00  0.00  0.00
  35  36  0.00 -1.00  0.00  1.00  1.00  1.00  0.00  0.00 -1.00  0.00  0.00  0.00
  36  35  1.00  1.00  1.00 -1.00  0.00  0.00  0.00  0.00 -1.00  0.00  0.00  0.00
  37  37  0.00  1.00  0.00  1.00  0.00  0.00  0.00  0.00  1.00  0.00  0.00  0.00
  38  38  1.00  0.00  0.00  0.00  1.00  0.00 -1.00 -1.00 -1.00  0.00  0.00  0.00
  39  40  0.00  0.00  1.00 -1.00 -1.00 -1.00  0.00  1.00  0.00  0.00  0.00  0.00
  40  39 -1.00 -1.00 -1.00  0.00  0.00  1.00  1.00  0.00  0.00  0.00  0.00  0.00
  41  41  1.00  0.00  0.00  0.00  0.00  1.00  0.00  1.00  0.00  0.00  0.00  0.00
  42  42  0.00  0.00  1.00  0.00  1.00  0.00  1.00  0.00  0.00  0.00  0.00  0.00
  43  45  0.00  0.00  1.00  1.00  0.00  0.00 -1.00 -1.00 -1.00  0.00  0.00  0.00
  44  46 -1.00 -1.00 -1.00  1.00  0.00  0.00  0.00  1.00  0.00  0.00  0.00  0.00
  45  43  0.00  1.00  0.00 -1.00 -1.00 -1.00  1.00  0.00  0.00  0.00  0.00  0.00
  46  44  0.00  1.00  0.00  0.00  0.00  1.00 -1.00 -1.00 -1.00  0.00  0.00  0.00
  47  47 -1.00 -1.00 -1.00  0.00  1.00  0.00  0.00  0.00  1.00  0.00  0.00  0.00
  48  48  1.00  0.00  0.00 -1.00 -1.00 -1.00  0.00  0.00  1.00  0.00  0.00  0.00

 DIRECT LATTICE VECTORS CARTESIAN COMPONENTS (ANGSTROM)
          X                    Y                    Z
   0.000000000000E+00   0.426844350000E+01   0.426844350000E+01
   0.426844350000E+01   0.000000000000E+00   0.426844350000E+01
   0.426844350000E+01   0.426844350000E+01   0.000000000000E+00


 CARTESIAN COORDINATES - PRIMITIVE CELL
 *******************************************************************************
 *      ATOM          X(ANGSTROM)         Y(ANGSTROM)         Z(ANGSTROM)
 *******************************************************************************
    1    12 MG    0.000000000000E+00  0.000000000000E+00  0.000000000000E+00
    2     8 O     2.134221750000E+00  2.134221750000E+00  2.134221750000E+00
    3    12 MG    2.134221750000E+00  0.000000000000E+00  2.134221750000E+00
    4    12 MG    4.268443500000E+00  2.134221750000E+00  2.134221750000E+00
    5    12 MG    0.000000000000E+00  2.134221750000E+00  2.134221750000E+00
    6    12 MG    2.134221750000E+00  4.268443500000E+00  2.134221750000E+00
    7    12 MG    2.134221750000E+00  2.134221750000E+00  4.268443500000E+00
    8    12 MG    4.268443500000E+00  4.268443500000E+00  4.268443500000E+00
    9    12 MG    2.134221750000E+00  2.134221750000E+00  0.000000000000E+00
   10     8 O     1.175009441523E-15  1.175009441523E-15  2.134221750000E+00
   11     8 O     1.645013218132E-15  2.134221750000E+00  1.175009441523E-15
   12     8 O    -2.134221750000E+00  9.400075532184E-16  9.400075532184E-16
   13     8 O     2.134221750000E+00  1.645013218132E-15  1.175009441523E-15
   14     8 O     9.400075532184E-16 -2.134221750000E+00  9.400075532184E-16
   15     8 O     9.400075532184E-16  9.400075532184E-16 -2.134221750000E+00
   16     8 O    -2.134221750000E+00 -2.134221750000E+00 -2.134221750000E+00

 *******************************************************************************
 STARTING BASIS SET HANDLING 
 *******************************************************************************

 Loading internal basis set: POB-DZVP-REV2       

 Please cite in your publication:
 D. Vilela Oliveira, M. F. Peintinger, J. Laun, and T. Bredow, J. Comput. Chem.,
  40 (2019)                                                                     
                                                                                
                    

 *******************************************************************************
 LOCAL ATOMIC FUNCTIONS BASIS SET
 *******************************************************************************
   ATOM   X(AU)   Y(AU)   Z(AU)  N. TYPE  EXPONENT  S COEF   P COEF   D/F/G COEF
 *******************************************************************************
   1 MG   0.000   0.000   0.000
                                  1 S  
                                         4.954E+03-5.778E-03 0.000E+00 0.000E+00
                                         7.452E+02-4.312E-02 0.000E+00 0.000E+00
                                         1.692E+02-1.927E-01 0.000E+00 0.000E+00
                                         4.730E+01-4.864E-01 0.000E+00 0.000E+00
                                         1.446E+01-4.255E-01 0.000E+00 0.000E+00
                                  2 S  
                                         2.477E+01 8.796E-02 0.000E+00 0.000E+00
                                         2.494E+00-5.517E-01 0.000E+00 0.000E+00
                                         8.781E-01-5.344E-01 0.000E+00 0.000E+00
                                  3 S  
                                         3.451E-01 1.000E+00 0.000E+00 0.000E+00
                                  4 S  
                                         1.501E-01 1.000E+00 0.000E+00 0.000E+00
                           5-     7 P  
                                         9.805E+01 0.000E+00-1.448E-02 0.000E+00
                                         2.259E+01 0.000E+00-9.550E-02 0.000E+00
                                         6.839E+00 0.000E+00-3.079E-01 0.000E+00
                                         2.233E+00 0.000E+00-4.994E-01 0.000E+00
                                         7.161E-01 0.000E+00-3.150E-01 0.000E+00
                           8-    10 P  
                                         2.469E-01 0.000E+00 1.000E+00 0.000E+00
                          11-    15 D  
                                         4.148E-01 0.000E+00 0.000E+00 1.000E+00
   2 O    4.033   4.033   4.033
                                 16 S  
                                         2.266E+03-5.343E-03 0.000E+00 0.000E+00
                                         3.409E+02-3.989E-02 0.000E+00 0.000E+00
                                         7.736E+01-1.785E-01 0.000E+00 0.000E+00
                                         2.148E+01-4.643E-01 0.000E+00 0.000E+00
                                         6.659E+00-4.431E-01 0.000E+00 0.000E+00
                                 17 S  
                                         8.479E-01 1.000E+00 0.000E+00 0.000E+00
                                 18 S  
                                         2.791E-01 1.000E+00 0.000E+00 0.000E+00
                          19-    21 P  
                                         1.772E+01 0.000E+00 4.339E-02 0.000E+00
                                         3.864E+00 0.000E+00 2.309E-01 0.000E+00
                                         1.048E+00 0.000E+00 5.138E-01 0.000E+00
                          22-    24 P  
                                         2.624E-01 0.000E+00 1.000E+00 0.000E+00
                          25-    29 D  
                                         4.790E-01 0.000E+00 0.000E+00 1.000E+00
   3 MG   4.033   0.000   4.033
   4 MG   8.066   4.033   4.033
   5 MG   0.000   4.033   4.033
   6 MG   4.033   8.066   4.033
   7 MG   4.033   4.033   8.066
   8 MG   8.066   8.066   8.066
   9 MG   4.033   4.033   0.000
  10 O    0.000   0.000   4.033
  11 O    0.000   4.033   0.000
  12 O   -4.033   0.000   0.000
  13 O    4.033   0.000   0.000
  14 O    0.000  -4.033   0.000
  15 O    0.000   0.000  -4.033
  16 O   -4.033  -4.033  -4.033

 *******************************************************************************
 FINISHED BASIS SET HANDLING 
 *******************************************************************************

 INFORMATION **** SET_MPP **** PCRYSTAL CALCULATION
 INFORMATION **** READM2 **** NEW DEFAULT: FOCK/KS MATRIX MIXING SET TO 30 %
 INFORMATION **** READM2 **** NEW DEFAULT: FULL DIRECT SCF MODE
 INFORMATION **** READM2 **** NEW DEFAULT: COULOMB BIPOLAR BUFFER SET TO 32 Mb
 INFORMATION **** READM2 **** NEW DEFAULT: EXCHANGE BIPOLAR BUFFER SET TO 32 Mb

 *******************************************************************************
 NEW DEFAULT: DFT INTEGRATION GRID INCREASED TO XLGRID
 NEW DEFAULT: DIIS ACCELERATOR ACTIVE
 USE KEYWORD NODIIS TO TURN IT OFF
 *******************************************************************************

 INFORMATION **** TOLINTEG **** COULOMB AND EXCHANGE SERIES TOLERANCES MODIFIED
 INFORMATION **** TOLDEE **** SCF TOL ON TOTAL ENERGY SET TO          10
 *******************************************************************************
 N. OF ATOMS PER CELL        16  COULOMB OVERLAP TOL         (T1) 10**   -8
 NUMBER OF SHELLS           104  COULOMB PENETRATION TOL     (T2) 10**   -8
 NUMBER OF AO               232  EXCHANGE OVERLAP TOL        (T3) 10**   20
 N. OF ELECTRONS PER CELL   160  EXCHANGE PSEUDO OVP (F(G))  (T4) 10**   20
 CORE ELECTRONS PER CELL     96  EXCHANGE PSEUDO OVP (P(G))  (T5) 10**   20
 N. OF SYMMETRY OPERATORS    48  POLE ORDER IN MONO ZONE                  4
 *******************************************************************************
 TYPE OF CALCULATION :  RESTRICTED CLOSED SHELL
 KOHN-SHAM HAMILTONIAN

 (EXCHANGE)[CORRELATION] FUNCTIONAL:(PERDEW-BURKE-ERNZERHOF)[PERDEW-BURKE-ERNZERHOF]


 CAPPA:IS1  8;IS2  8;IS3  8; K PTS MONK NET  29; SYMMOPS:K SPACE  48;G SPACE  48

 *******************************************************************************
 MAX NUMBER OF SCF CYCLES      50  CONVERGENCE ON DELTAP        10**-20
 WEIGHT OF F(I) IN F(I+1)      30% CONVERGENCE ON ENERGY        10**-10
 SHRINK. FACT.(MONKH.)    8  8  8  NUMBER OF K POINTS IN THE IBZ     29
 SHRINKING FACTOR(GILAT NET)    8  NUMBER OF K POINTS(GILAT NET)     29
 *******************************************************************************
 *** K POINTS COORDINATES (OBLIQUE COORDINATES IN UNITS OF IS =  8)
   1-R(  0  0  0)   2-C(  1  0  0)   3-C(  2  0  0)   4-C(  3  0  0)
   5-R(  4  0  0)   6-C(  1  1  0)   7-C(  2  1  0)   8-C(  3  1  0)
   9-C(  4  1  0)  10-C(  5  1  0)  11-C(  6  1  0)  12-C(  7  1  0)
  13-C(  2  2  0)  14-C(  3  2  0)  15-C(  4  2  0)  16-C(  5  2  0)
  17-C(  6  2  0)  18-C(  3  3  0)  19-C(  4  3  0)  20-C(  5  3  0)
  21-R(  4  4  0)  22-C(  3  2  1)  23-C(  4  2  1)  24-C(  5  2  1)
  25-C(  4  3  1)  26-C(  5  3  1)  27-C(  6  3  1)  28-C(  5  4  1)
  29-C(  6  4  2)

 DIRECT LATTICE VECTORS COMPON. (A.U.)     RECIP. LATTICE VECTORS COMPON. (A.U.) 
        X            Y            Z              X            Y            Z
    0.0000000    8.0661892    8.0661892     -0.3894767    0.3894767    0.3894767
    8.0661892    0.0000000    8.0661892      0.3894767   -0.3894767    0.3894767
    8.0661892    8.0661892    0.0000000      0.3894767    0.3894767   -0.3894767

 DISK SPACE FOR EIGENVECTORS (FTN 10)     2960320 REALS

 SYMMETRY ADAPTION OF THE BLOCH FUNCTIONS ENABLED
 TTTTTTTTTTTTTTTTTTTTTTTTTTTTTT gordsh1     TELAPSE        0.28 TCPU        0.21

 MATRIX SIZE: P(G)  191864, F(G)   96432, P(G) IRR    5464, F(G) IRR    5464
 MAX G-VECTOR INDEX FOR 1- AND 2-ELECTRON INTEGRALS 133

 TTTTTTTTTTTTTTTTTTTTTTTTTTTTTT INPUT       TELAPSE        0.28 TCPU        0.21

 NEIGHBORS OF THE NON-EQUIVALENT ATOMS

 N = NUMBER OF NEIGHBORS AT DISTANCE R
    ATOM  N     R/ANG      R/AU   NEIGHBORS (ATOM LABELS AND CELL INDICES)
   1 MG   6     2.1342     4.0331   10 O    0 0 0   11 O    0 0 0   12 O    0 0 0
                                    13 O    0 0 0   14 O    0 0 0   15 O    0 0 0
   1 MG  12     3.0182     5.7037    3 MG   0 0 0    3 MG   0-1 0    4 MG   0-1 0
                                     4 MG   0 0-1    5 MG   0 0 0    5 MG  -1 0 0
                                     6 MG   0 0-1    6 MG  -1 0 0    7 MG  -1 0 0
                                     7 MG   0-1 0    9 MG   0 0 0    9 MG   0 0-1
   1 MG   8     3.6966     6.9855    2 O    0 0 0    2 O   -1 0 0    2 O    0-1 0
                                     2 O    0 0-1   16 O    0 0 0   16 O    1 0 0
                                    16 O    0 1 0   16 O    0 0 1
   1 MG   6     4.2684     8.0662    8 MG  -1 0 0    8 MG   0-1 0    8 MG   0 0-1
                                     8 MG  -1-1 0    8 MG  -1 0-1    8 MG   0-1-1
   1 MG  24     4.7723     9.0183   10 O   -1 0 0   10 O   -1 0 1   10 O    0-1 0
                                    10 O    0-1 1   11 O    0 0-1   11 O    0 1-1
                                    11 O   -1 0 0   11 O   -1 1 0   12 O    0 1 0
                                    12 O   -1 1 0   12 O    0 0 1   12 O   -1 0 1
                                    13 O    0-1 0   13 O    1-1 0   13 O    0 0-1
                                    13 O    1 0-1   14 O    0 0 1   14 O    0-1 1
                                    14 O    1 0 0   14 O    1-1 0   15 O    1 0 0
                                    15 O    1 0-1   15 O    0 1 0   15 O    0 1-1
   1 MG  24     5.2278     9.8790    3 MG  -1 0 0    3 MG   1-1 0    3 MG   0-1 1
                                     3 MG   0 0-1    4 MG  -1 0 0    4 MG   1-1-1
                                     4 MG   0-1-1    4 MG   0 0 0    5 MG   0 0-1
                                     5 MG  -1 0 1    5 MG  -1 1 0    5 MG   0-1 0
                                     6 MG   0-1 0    6 MG  -1 1-1    6 MG  -1 0-1
                                     6 MG   0 0 0    7 MG   0 0-1    7 MG  -1-1 1
                                     7 MG  -1-1 0    7 MG   0 0 0    9 MG   0-1 0
                                     9 MG   0 1-1    9 MG   1 0-1    9 MG  -1 0 0

   2 O    6     2.1342     4.0331    3 MG   0 0 0    4 MG   0 0 0    5 MG   0 0 0
                                     6 MG   0 0 0    7 MG   0 0 0    9 MG   0 0 0
   2 O   12     3.0182     5.7037   10 O    0 0 0   10 O    0 0 1   11 O    0 0 0
                                    11 O    0 1 0   12 O    0 0 1   12 O    0 1 0
                                    13 O    0 0 0   13 O    1 0 0   14 O    0 0 1
                                    14 O    1 0 0   15 O    1 0 0   15 O    0 1 0
   2 O    8     3.6966     6.9855    1 MG   0 0 0    1 MG   1 0 0    1 MG   0 1 0
                                     1 MG   0 0 1    8 MG   0 0 0    8 MG  -1 0 0
                                     8 MG   0-1 0    8 MG   0 0-1
   2 O    6     4.2684     8.0662   16 O    1 0 0   16 O    0 1 0   16 O    0 0 1
                                    16 O    1 1 0   16 O    1 0 1   16 O    0 1 1
   2 O   24     4.7723     9.0183    3 MG   1 0 0    3 MG   1-1 0    3 MG   0-1 1
                                     3 MG   0 0 1    4 MG   1-1 0    4 MG   1 0-1
                                     4 MG   0 0-1    4 MG   0-1 0    5 MG   0 0 1
                                     5 MG  -1 0 1    5 MG  -1 1 0    5 MG   0 1 0
                                     6 MG   0 1-1    6 MG  -1 1 0    6 MG  -1 0 0
                                     6 MG   0 0-1    7 MG  -1 0 1    7 MG   0-1 1
                                     7 MG   0-1 0    7 MG  -1 0 0    9 MG   0 1 0
                                     9 MG   0 1-1    9 MG   1 0-1    9 MG   1 0 0
   2 O   24     5.2278     9.8790   10 O    1 0 0   10 O   -1 0 1   10 O    0 1 0
                                    10 O    0-1 1   11 O    0 0 1   11 O    0 1-1
                                    11 O    1 0 0   11 O   -1 1 0   12 O    1 0 0
                                    12 O   -1 1 1   12 O    0 0 0   12 O    0 1 1
                                    13 O    0 1 0   13 O    1-1 0   13 O    0 0 1
                                    13 O    1 0-1   14 O    0 0 0   14 O    1 0 1
                                    14 O    0 1 0   14 O    1-1 1   15 O    0 0 0
                                    15 O    1 1 0   15 O    0 0 1   15 O    1 1-1

   3 MG   6     2.1342     4.0331    2 O    0 0 0   10 O    0 0 0   12 O    0 1 0
                                    13 O    0 0 0   15 O    0 1 0   16 O    0 1 0
   3 MG  12     3.0182     5.7037    1 MG   0 0 0    1 MG   0 1 0    4 MG   0 0 0
                                     4 MG   0 0-1    5 MG   0 0 0    5 MG  -1 1 0
                                     7 MG   0 0 0    7 MG  -1 0 0    8 MG   0 0-1
                                     8 MG  -1 0 0    9 MG   0 0 0    9 MG   0 1-1
   3 MG   8     3.6966     6.9855   11 O    0 1-1   11 O    0 0 0   11 O    0 1 0
                                    11 O   -1 1 0   14 O    0 0 1   14 O    0 0 0
                                    14 O    0 1 0   14 O    1 0 0
   3 MG   6     4.2684     8.0662    6 MG   0 0 0    6 MG  -1 1 0    6 MG   0 1-1
                                     6 MG   0 0-1    6 MG  -1 0 0    6 MG  -1 1-1
   3 MG  24     4.7723     9.0183    2 O   -1 0 0    2 O   -1 1 0    2 O    0 1-1
                                     2 O    0 0-1   10 O   -1 0 1   10 O   -1 1 0
                                    10 O    0 1 0   10 O    0 0 1   12 O   -1 1 1
                                    12 O    0 0 1   12 O    0 0 0   12 O   -1 1 0
                                    13 O    1 0-1   13 O    1 0 0   13 O    0 1 0
                                    13 O    0 1-1   15 O    1 1-1   15 O    0 1-1
                                    15 O    0 0 0   15 O    1 0 0   16 O    0 1 1
                                    16 O    0 0 1   16 O    1 0 0   16 O    1 1 0
   3 MG  24     5.2278     9.8790    1 MG   1 0 0    1 MG  -1 1 0    1 MG   0 1-1
                                     1 MG   0 0 1    4 MG  -1 0 0    4 MG   1 0-1
                                     4 MG   0-1 0    4 MG   0 1-1    5 MG  -1 0 0
                                     5 MG   0 1 0    5 MG  -1 0 1    5 MG   0 1-1
                                     7 MG   0-1 0    7 MG  -1 1 0    7 MG   0 0-1
                                     7 MG  -1 0 1    8 MG   0-1 0    8 MG  -1 1-1
                                     8 MG  -1 0-1    8 MG   0 0 0    9 MG   1 0-1
                                     9 MG  -1 1 0    9 MG   0 0-1    9 MG   0 1 0

   8 MG   6     2.1342     4.0331   10 O    0 0 1   11 O    0 1 0   12 O    0 1 1
                                    13 O    1 0 0   14 O    1 0 1   15 O    1 1 0
   8 MG  12     3.0182     5.7037    3 MG   0 0 1    3 MG   1 0 0    4 MG   0 0 0
                                     4 MG   1 0 0    5 MG   0 1 0    5 MG   0 0 1
                                     6 MG   0 0 0    6 MG   0 1 0    7 MG   0 0 0
                                     7 MG   0 0 1    9 MG   1 0 0    9 MG   0 1 0
   8 MG   8     3.6966     6.9855    2 O    0 0 0    2 O    1 0 0    2 O    0 1 0
                                     2 O    0 0 1   16 O    1 1 1   16 O    1 0 1
                                    16 O    0 1 1   16 O    1 1 0
   8 MG   6     4.2684     8.0662    1 MG   1 0 0    1 MG   0 1 0    1 MG   0 0 1
                                     1 MG   1 1 0    1 MG   1 0 1    1 MG   0 1 1
   8 MG  24     4.7723     9.0183   10 O    1 0 0   10 O    0 1 0   10 O    1 0 1
                                    10 O    0 1 1   11 O    0 0 1   11 O    1 0 0
                                    11 O    0 1 1   11 O    1 1 0   12 O    1 0 1
                                    12 O    0 0 1   12 O    1 1 0   12 O    0 1 0
                                    13 O    0 1 0   13 O    0 0 1   13 O    1 1 0
                                    13 O    1 0 1   14 O    0 0 1   14 O    0 1 1
                                    14 O    1 0 0   14 O    1 1 0   15 O    1 0 0
                                    15 O    1 0 1   15 O    0 1 0   15 O    0 1 1
   8 MG  24     5.2278     9.8790    3 MG   0 1 0    3 MG   1-1 1    3 MG   1 0 1
                                     3 MG   0 0 0    4 MG   0 0 1    4 MG   1 0-1
                                     4 MG   1-1 0    4 MG   0 1 0    5 MG   1 0 0
                                     5 MG  -1 1 1    5 MG   0 1 1    5 MG   0 0 0
                                     6 MG   1 0 0    6 MG  -1 1 0    6 MG   0 1-1
                                     6 MG   0 0 1    7 MG   0 1 0    7 MG   0-1 1
                                     7 MG  -1 0 1    7 MG   1 0 0    9 MG   0 0 1
                                     9 MG   1 1-1    9 MG   1 1 0    9 MG   0 0 0

  10 O    6     2.1342     4.0331    1 MG   0 0 0    3 MG   0 0 0    4 MG   0 0-1
                                     5 MG   0 0 0    6 MG   0 0-1    8 MG   0 0-1
  10 O   12     3.0182     5.7037    2 O    0 0 0    2 O    0 0-1   11 O    0 0 0
                                    11 O    0 1-1   12 O    0 0 0   12 O    0 1 0
                                    13 O    0 0 0   13 O    1 0-1   14 O    0 0 0
                                    14 O    1 0 0   16 O    1 0 0   16 O    0 1 0
  10 O    8     3.6966     6.9855    7 MG   0 0 0    7 MG  -1 0 0    7 MG   0-1 0
                                     7 MG   0 0-1    9 MG   0 1-1    9 MG   0 0-1
                                     9 MG   0 0 0    9 MG   1 0-1
  10 O    6     4.2684     8.0662   15 O    0 0 0   15 O    0 1-1   15 O    1 0-1
                                    15 O    1 0 0   15 O    0 1 0   15 O    1 1-1
  10 O   24     4.7723     9.0183    1 MG   1 0 0    1 MG   1 0-1    1 MG   0 1 0
                                     1 MG   0 1-1    3 MG   1 0-1    3 MG   1-1 0
                                     3 MG   0-1 0    3 MG   0 0-1    4 MG   1 0-1
                                     4 MG   0 0 0    4 MG   0-1 0    4 MG   1-1-1
                                     5 MG   0 1-1    5 MG   0 0-1    5 MG  -1 0 0
                                     5 MG  -1 1 0    6 MG   0 1-1    6 MG  -1 1-1
                                     6 MG  -1 0 0    6 MG   0 0 0    8 MG  -1 0 0
                                     8 MG   0-1 0    8 MG  -1 0-1    8 MG   0-1-1
  10 O   24     5.2278     9.8790    2 O   -1 0 0    2 O    1 0-1    2 O    0-1 0
                                     2 O    0 1-1   11 O    1 0-1   11 O   -1 1 0
                                    11 O    0 1 0   11 O    0 0-1   12 O   -1 1 0
                                    12 O    1 0 0   12 O    0 0 1   12 O    0 1-1
                                    13 O    1-1 0   13 O    0 1-1   13 O    0 0-1
                                    13 O    1 0 0   14 O    0 1 0   14 O    1-1 0
                                    14 O    1 0-1   14 O    0 0 1   16 O    0 0 0
                                    16 O    1 1 0   16 O    0 0 1   16 O    1 1-1


 SYMMETRY ALLOWED INTERNAL DEGREE(S) OF FREEDOM:   1
 TTTTTTTTTTTTTTTTTTTTTTTTTTTTTT SYMM        TELAPSE        0.29 TCPU        0.22
 TTTTTTTTTTTTTTTTTTTTTTTTTTTTTT INT_SCREEN  TELAPSE        0.30 TCPU        0.22

 ************************************************************************
 ************************************************************************
 EOS OPTION, W.F. PERGER, B. CIVALLERI, R. DOVESI, C.M. ZICOVICH, SEPTEMBER 2010
             A. ERBA 2013 
 CONVERGENCE CRITERION FOR ENERGY, TOLDEE =   1.0000E-09
 CONVERGENCE CRITERION FOR RMS GRADIENT, TOLDEG =   3.0000E-04
 CONVERGENCE CRITERION FOR RMS DISPLACEMENT, TOLDEX =  6.2000E-04
 NUMBER OF POINTS (TOTAL) DETERMINING E-V CURVE=     6
 RANGE OF VOLUMES, IN %:     92.0000    108.0000
 ************************************************************************
 ************************************************************************
 TTTTTTTTTTTTTTTTTTTTTTTTTTTTTT gordsh1     TELAPSE        0.30 TCPU        0.22

 MATRIX SIZE: P(G)  191864, F(G)   96432, P(G) IRR    5464, F(G) IRR    5464
 MAX G-VECTOR INDEX FOR 1- AND 2-ELECTRON INTEGRALS 133

 TTTTTTTTTTTTTTTTTTTTTTTTTTTTTT INPUT       TELAPSE        0.30 TCPU        0.23

 NEIGHBORS OF THE NON-EQUIVALENT ATOMS

 N = NUMBER OF NEIGHBORS AT DISTANCE R
    ATOM  N     R/ANG      R/AU   NEIGHBORS (ATOM LABELS AND CELL INDICES)
   1 MG   6     2.1342     4.0331   10 O    0 0 0   11 O    0 0 0   12 O    0 0 0
                                    13 O    0 0 0   14 O    0 0 0   15 O    0 0 0
   1 MG  12     3.0182     5.7037    3 MG   0 0 0    3 MG   0-1 0    4 MG   0-1 0
                                     4 MG   0 0-1    5 MG   0 0 0    5 MG  -1 0 0
                                     6 MG   0 0-1    6 MG  -1 0 0    7 MG  -1 0 0
                                     7 MG   0-1 0    9 MG   0 0 0    9 MG   0 0-1
   1 MG   8     3.6966     6.9855    2 O    0 0 0    2 O   -1 0 0    2 O    0-1 0
                                     2 O    0 0-1   16 O    0 0 0   16 O    1 0 0
                                    16 O    0 1 0   16 O    0 0 1
   1 MG   6     4.2684     8.0662    8 MG  -1 0 0    8 MG   0-1 0    8 MG   0 0-1
                                     8 MG  -1-1 0    8 MG  -1 0-1    8 MG   0-1-1
   1 MG  24     4.7723     9.0183   10 O   -1 0 0   10 O   -1 0 1   10 O    0-1 0
                                    10 O    0-1 1   11 O    0 0-1   11 O    0 1-1
                                    11 O   -1 0 0   11 O   -1 1 0   12 O    0 1 0
                                    12 O   -1 1 0   12 O    0 0 1   12 O   -1 0 1
                                    13 O    0-1 0   13 O    1-1 0   13 O    0 0-1
                                    13 O    1 0-1   14 O    0 0 1   14 O    0-1 1
                                    14 O    1 0 0   14 O    1-1 0   15 O    1 0 0
                                    15 O    1 0-1   15 O    0 1 0   15 O    0 1-1
   1 MG  24     5.2278     9.8790    3 MG  -1 0 0    3 MG   1-1 0    3 MG   0-1 1
                                     3 MG   0 0-1    4 MG  -1 0 0    4 MG   1-1-1
                                     4 MG   0-1-1    4 MG   0 0 0    5 MG   0 0-1
                                     5 MG  -1 0 1    5 MG  -1 1 0    5 MG   0-1 0
                                     6 MG   0-1 0    6 MG  -1 1-1    6 MG  -1 0-1
                                     6 MG   0 0 0    7 MG   0 0-1    7 MG  -1-1 1
                                     7 MG  -1-1 0    7 MG   0 0 0    9 MG   0-1 0
                                     9 MG   0 1-1    9 MG   1 0-1    9 MG  -1 0 0

   2 O    6     2.1342     4.0331    3 MG   0 0 0    4 MG   0 0 0    5 MG   0 0 0
                                     6 MG   0 0 0    7 MG   0 0 0    9 MG   0 0 0
   2 O   12     3.0182     5.7037   10 O    0 0 0   10 O    0 0 1   11 O    0 0 0
                                    11 O    0 1 0   12 O    0 0 1   12 O    0 1 0
                                    13 O    0 0 0   13 O    1 0 0   14 O    0 0 1
                                    14 O    1 0 0   15 O    1 0 0   15 O    0 1 0
   2 O    8     3.6966     6.9855    1 MG   0 0 0    1 MG   1 0 0    1 MG   0 1 0
                                     1 MG   0 0 1    8 MG   0 0 0    8 MG  -1 0 0
                                     8 MG   0-1 0    8 MG   0 0-1
   2 O    6     4.2684     8.0662   16 O    1 0 0   16 O    0 1 0   16 O    0 0 1
                                    16 O    1 1 0   16 O    1 0 1   16 O    0 1 1
   2 O   24     4.7723     9.0183    3 MG   1 0 0    3 MG   1-1 0    3 MG   0-1 1
                                     3 MG   0 0 1    4 MG   1-1 0    4 MG   1 0-1
                                     4 MG   0 0-1    4 MG   0-1 0    5 MG   0 0 1
                                     5 MG  -1 0 1    5 MG  -1 1 0    5 MG   0 1 0
                                     6 MG   0 1-1    6 MG  -1 1 0    6 MG  -1 0 0
                                     6 MG   0 0-1    7 MG  -1 0 1    7 MG   0-1 1
                                     7 MG   0-1 0    7 MG  -1 0 0    9 MG   0 1 0
                                     9 MG   0 1-1    9 MG   1 0-1    9 MG   1 0 0
   2 O   24     5.2278     9.8790   10 O    1 0 0   10 O   -1 0 1   10 O    0 1 0
                                    10 O    0-1 1   11 O    0 0 1   11 O    0 1-1
                                    11 O    1 0 0   11 O   -1 1 0   12 O    1 0 0
                                    12 O   -1 1 1   12 O    0 0 0   12 O    0 1 1
                                    13 O    0 1 0   13 O    1-1 0   13 O    0 0 1
                                    13 O    1 0-1   14 O    0 0 0   14 O    1 0 1
                                    14 O    0 1 0   14 O    1-1 1   15 O    0 0 0
                                    15 O    1 1 0   15 O    0 0 1   15 O    1 1-1

   3 MG   6     2.1342     4.0331    2 O    0 0 0   10 O    0 0 0   12 O    0 1 0
                                    13 O    0 0 0   15 O    0 1 0   16 O    0 1 0
   3 MG  12     3.0182     5.7037    1 MG   0 0 0    1 MG   0 1 0    4 MG   0 0 0
                                     4 MG   0 0-1    5 MG   0 0 0    5 MG  -1 1 0
                                     7 MG   0 0 0    7 MG  -1 0 0    8 MG   0 0-1
                                     8 MG  -1 0 0    9 MG   0 0 0    9 MG   0 1-1
   3 MG   8     3.6966     6.9855   11 O    0 1-1   11 O    0 0 0   11 O    0 1 0
                                    11 O   -1 1 0   14 O    0 0 1   14 O    0 0 0
                                    14 O    0 1 0   14 O    1 0 0
   3 MG   6     4.2684     8.0662    6 MG   0 0 0    6 MG  -1 1 0    6 MG   0 1-1
                                     6 MG   0 0-1    6 MG  -1 0 0    6 MG  -1 1-1
   3 MG  24     4.7723     9.0183    2 O   -1 0 0    2 O   -1 1 0    2 O    0 1-1
                                     2 O    0 0-1   10 O   -1 0 1   10 O   -1 1 0
                                    10 O    0 1 0   10 O    0 0 1   12 O   -1 1 1
                                    12 O    0 0 1   12 O    0 0 0   12 O   -1 1 0
                                    13 O    1 0-1   13 O    1 0 0   13 O    0 1 0
                                    13 O    0 1-1   15 O    1 1-1   15 O    0 1-1
                                    15 O    0 0 0   15 O    1 0 0   16 O    0 1 1
                                    16 O    0 0 1   16 O    1 0 0   16 O    1 1 0
   3 MG  24     5.2278     9.8790    1 MG   1 0 0    1 MG  -1 1 0    1 MG   0 1-1
                                     1 MG   0 0 1    4 MG  -1 0 0    4 MG   1 0-1
                                     4 MG   0-1 0    4 MG   0 1-1    5 MG  -1 0 0
                                     5 MG   0 1 0    5 MG  -1 0 1    5 MG   0 1-1
                                     7 MG   0-1 0    7 MG  -1 1 0    7 MG   0 0-1
                                     7 MG  -1 0 1    8 MG   0-1 0    8 MG  -1 1-1
                                     8 MG  -1 0-1    8 MG   0 0 0    9 MG   1 0-1
                                     9 MG  -1 1 0    9 MG   0 0-1    9 MG   0 1 0

   8 MG   6     2.1342     4.0331   10 O    0 0 1   11 O    0 1 0   12 O    0 1 1
                                    13 O    1 0 0   14 O    1 0 1   15 O    1 1 0
   8 MG  12     3.0182     5.7037    3 MG   0 0 1    3 MG   1 0 0    4 MG   0 0 0
                                     4 MG   1 0 0    5 MG   0 1 0    5 MG   0 0 1
                                     6 MG   0 0 0    6 MG   0 1 0    7 MG   0 0 0
                                     7 MG   0 0 1    9 MG   1 0 0    9 MG   0 1 0
   8 MG   8     3.6966     6.9855    2 O    0 0 0    2 O    1 0 0    2 O    0 1 0
                                     2 O    0 0 1   16 O    1 1 1   16 O    1 0 1
                                    16 O    0 1 1   16 O    1 1 0
   8 MG   6     4.2684     8.0662    1 MG   1 0 0    1 MG   0 1 0    1 MG   0 0 1
                                     1 MG   1 1 0    1 MG   1 0 1    1 MG   0 1 1
   8 MG  24     4.7723     9.0183   10 O    1 0 0   10 O    0 1 0   10 O    1 0 1
                                    10 O    0 1 1   11 O    0 0 1   11 O    1 0 0
                                    11 O    0 1 1   11 O    1 1 0   12 O    1 0 1
                                    12 O    0 0 1   12 O    1 1 0   12 O    0 1 0
                                    13 O    0 1 0   13 O    0 0 1   13 O    1 1 0
                                    13 O    1 0 1   14 O    0 0 1   14 O    0 1 1
                                    14 O    1 0 0   14 O    1 1 0   15 O    1 0 0
                                    15 O    1 0 1   15 O    0 1 0   15 O    0 1 1
   8 MG  24     5.2278     9.8790    3 MG   0 1 0    3 MG   1-1 1    3 MG   1 0 1
                                     3 MG   0 0 0    4 MG   0 0 1    4 MG   1 0-1
                                     4 MG   1-1 0    4 MG   0 1 0    5 MG   1 0 0
                                     5 MG  -1 1 1    5 MG   0 1 1    5 MG   0 0 0
                                     6 MG   1 0 0    6 MG  -1 1 0    6 MG   0 1-1
                                     6 MG   0 0 1    7 MG   0 1 0    7 MG   0-1 1
                                     7 MG  -1 0 1    7 MG   1 0 0    9 MG   0 0 1
                                     9 MG   1 1-1    9 MG   1 1 0    9 MG   0 0 0

  10 O    6     2.1342     4.0331    1 MG   0 0 0    3 MG   0 0 0    4 MG   0 0-1
                                     5 MG   0 0 0    6 MG   0 0-1    8 MG   0 0-1
  10 O   12     3.0182     5.7037    2 O    0 0 0    2 O    0 0-1   11 O    0 0 0
                                    11 O    0 1-1   12 O    0 0 0   12 O    0 1 0
                                    13 O    0 0 0   13 O    1 0-1   14 O    0 0 0
                                    14 O    1 0 0   16 O    1 0 0   16 O    0 1 0
  10 O    8     3.6966     6.9855    7 MG   0 0 0    7 MG  -1 0 0    7 MG   0-1 0
                                     7 MG   0 0-1    9 MG   0 1-1    9 MG   0 0-1
                                     9 MG   0 0 0    9 MG   1 0-1
  10 O    6     4.2684     8.0662   15 O    0 0 0   15 O    0 1-1   15 O    1 0-1
                                    15 O    1 0 0   15 O    0 1 0   15 O    1 1-1
  10 O   24     4.7723     9.0183    1 MG   1 0 0    1 MG   1 0-1    1 MG   0 1 0
                                     1 MG   0 1-1    3 MG   1 0-1    3 MG   1-1 0
                                     3 MG   0-1 0    3 MG   0 0-1    4 MG   1 0-1
                                     4 MG   0 0 0    4 MG   0-1 0    4 MG   1-1-1
                                     5 MG   0 1-1    5 MG   0 0-1    5 MG  -1 0 0
                                     5 MG  -1 1 0    6 MG   0 1-1    6 MG  -1 1-1
                                     6 MG  -1 0 0    6 MG   0 0 0    8 MG  -1 0 0
                                     8 MG   0-1 0    8 MG  -1 0-1    8 MG   0-1-1
  10 O   24     5.2278     9.8790    2 O   -1 0 0    2 O    1 0-1    2 O    0-1 0
                                     2 O    0 1-1   11 O    1 0-1   11 O   -1 1 0
                                    11 O    0 1 0   11 O    0 0-1   12 O   -1 1 0
                                    12 O    1 0 0   12 O    0 0 1   12 O    0 1-1
                                    13 O    1-1 0   13 O    0 1-1   13 O    0 0-1
                                    13 O    1 0 0   14 O    0 1 0   14 O    1-1 0
                                    14 O    1 0-1   14 O    0 0 1   16 O    0 0 0
                                    16 O    1 1 0   16 O    0 0 1   16 O    1 1-1


 SYMMETRY ALLOWED ELASTIC DISTORTION 1
  0.5773503  0.0000000  0.0000000
  0.0000000  0.5773503  0.0000000
  0.0000000  0.0000000  0.5773503

 SYMMETRY ALLOWED INTERNAL DEGREE(S) OF FREEDOM:   1
 TTTTTTTTTTTTTTTTTTTTTTTTTTTTTT SYMM        TELAPSE        0.32 TCPU        0.23
 TTTTTTTTTTTTTTTTTTTTTTTTTTTTTT INT_SCREEN  TELAPSE        0.32 TCPU        0.24

 DFT PARAMETERS

     ATOM       ELECTRONS   NET CHARGE   R(ANGSTROM)
   1  12  MG     12.0000      0.0000     1.60000000
   2   8  O       8.0000      0.0000     0.74000000

 SIZE OF GRID=       8242
 TTTTTTTTTTTTTTTTTTTTTTTTTTTTTT MAKE_GRID2  TELAPSE        1.47 TCPU        1.38
 BECKE WEIGHT FUNCTION
 RADSAFE =     2.00
 TOLERANCES - DENSITY:10**- 6; POTENTIAL:10**- 9; GRID WGT:10**-14

 RADIAL INTEGRATION  - INTERVALS (POINTS,UPPER LIMIT):            1( 75,  4.0*R)

 ANGULAR INTEGRATION - INTERVALS (ACCURACY LEVEL [N. POINTS] UPPER LIMIT):
  1(  4[  86]   0.2)  2(  8[ 194]   0.5)  3( 12[ 350]   0.9)  4( 16[ 974]   3.5)
  5( 12[ 350]9999.0)
 TTTTTTTTTTTTTTTTTTTTTTTTTTTTTT INT_CALC    TELAPSE        1.49 TCPU        1.41

 *******************************************************************************
 MgO supercell 2x2x2 - PBE/pob-DVZVP-rev2 - QHA                                  
 CRYSTAL - SCF - TYPE OF CALCULATION :  RESTRICTED CLOSED SHELL
 *******************************************************************************

 CAPPA:IS1  8;IS2  8;IS3  8; K PTS MONK NET  29; SYMMOPS:K SPACE  48;G SPACE  48

 TTTTTTTTTTTTTTTTTTTTTTTTTTTTTT SDIK        TELAPSE        1.52 TCPU        1.43

 AAAAAAAAAAAAAAAAAAAAAAAAAAAAAAAAAAAAAAAAAAAAAAAAAAAAAAAAAAAAAAAAAAAAAAAAAAAAAAA
         ATOMIC WAVEFUNCTION(S)


 NUCLEAR CHARGE 12.0  SYMMETRY SPECIES            S    P
 N. ELECTRONS   12.0  NUMBER OF PRIMITIVE GTOS   10    6
                      NUMBER OF CONTRACTED GTOS   4    2
                      NUMBER OF CLOSED SHELLS     3    1
                      OPEN SHELL OCCUPATION       0    0

  ZNUC  SCFIT    TOTAL HF ENERGY   KINETIC ENERGY   VIRIAL THEOREM ACCURACY
  12.0     9    -1.994602712E+02  1.994291603E+02 -2.000155999E+00  2.6E-06

 NUCLEAR CHARGE  8.0  SYMMETRY SPECIES            S    P
 N. ELECTRONS    8.0  NUMBER OF PRIMITIVE GTOS    7    4
                      NUMBER OF CONTRACTED GTOS   3    2
                      NUMBER OF CLOSED SHELLS     2    0
                      OPEN SHELL OCCUPATION       0    4

  ZNUC  SCFIT    TOTAL HF ENERGY   KINETIC ENERGY   VIRIAL THEOREM ACCURACY
   8.0    13    -7.471200414E+01  7.474432650E+01 -1.999567561E+00  2.0E-06

 AAAAAAAAAAAAAAAAAAAAAAAAAAAAAAAAAAAAAAAAAAAAAAAAAAAAAAAAAAAAAAAAAAAAAAAAAAAAAAA

 TTTTTTTTTTTTTTTTTTTTTTTTTTTTTT MOQGAD      TELAPSE        1.53 TCPU        1.44
 TTTTTTTTTTTTTTTTTTTTTTTTTTTTTT SHELLXN     TELAPSE        2.58 TCPU        2.49
 TTTTTTTTTTTTTTTTTTTTTTTTTTTTTT MONMO3      TELAPSE        2.60 TCPU        2.51
 NUMERICALLY INTEGRATED DENSITY    160.0004310794
 TTTTTTTTTTTTTTTTTTTTTTTTTTTTTT NUMDFT      TELAPSE        2.75 TCPU        2.66
 CYC   0 ETOT(AU) -2.201359926816E+03 DETOT -2.20E+03 tst  0.00E+00 PX  1.00E+00
 TTTTTTTTTTTTTTTTTTTTTTTTTTTTTT DIIS        TELAPSE        2.76 TCPU        2.67
 TTTTTTTTTTTTTTTTTTTTTTTTTTTTTT FDIK        TELAPSE        3.03 TCPU        2.94
 INSULATING STATE
 TOP OF VALENCE BANDS -    BAND     80; K    1; EIG -3.3028404E-01 AU
 BOTTOM OF VIRTUAL BANDS - BAND     81; K    1; EIG -8.7639914E-02 AU
 DIRECT ENERGY BAND GAP:   6.6027 eV
 TTTTTTTTTTTTTTTTTTTTTTTTTTTTTT PDIG        TELAPSE        3.14 TCPU        3.05
 TTTTTTTTTTTTTTTTTTTTTTTTTTTTTT MOQGAD      TELAPSE        3.15 TCPU        3.06
 TTTTTTTTTTTTTTTTTTTTTTTTTTTTTT SHELLXN     TELAPSE        4.39 TCPU        4.30
 TTTTTTTTTTTTTTTTTTTTTTTTTTTTTT MONMO3      TELAPSE        4.41 TCPU        4.32
 NUMERICALLY INTEGRATED DENSITY    160.0004263024
 TTTTTTTTTTTTTTTTTTTTTTTTTTTTTT NUMDFT      TELAPSE        4.51 TCPU        4.42
 CYC   1 ETOT(AU) -2.200580606686E+03 DETOT  7.79E-01 tst  0.00E+00 PX  1.00E+00
 TTTTTTTTTTTTTTTTTTTTTTTTTTTTTT DIIS        TELAPSE        4.52 TCPU        4.43
 DIIS TEST: 0.75198E+01 AT SCF   CYCLE   1 - MIX   30 %
 TTTTTTTTTTTTTTTTTTTTTTTTTTTTTT FDIK        TELAPSE        4.60 TCPU        4.51
 INSULATING STATE
 TOP OF VALENCE BANDS -    BAND     80; K    1; EIG -5.1080720E-02 AU
 BOTTOM OF VIRTUAL BANDS - BAND     81; K    1; EIG  6.2324997E-02 AU
 DIRECT ENERGY BAND GAP:   3.0859 eV
 TTTTTTTTTTTTTTTTTTTTTTTTTTTTTT PDIG        TELAPSE        4.71 TCPU        4.62
 TTTTTTTTTTTTTTTTTTTTTTTTTTTTTT MOQGAD      TELAPSE        4.72 TCPU        4.63
 TTTTTTTTTTTTTTTTTTTTTTTTTTTTTT SHELLXN     TELAPSE        5.96 TCPU        5.87
 TTTTTTTTTTTTTTTTTTTTTTTTTTTTTT MONMO3      TELAPSE        5.99 TCPU        5.89
 NUMERICALLY INTEGRATED DENSITY    160.0005620234
 TTTTTTTTTTTTTTTTTTTTTTTTTTTTTT NUMDFT      TELAPSE        6.09 TCPU        6.00
 CYC   2 ETOT(AU) -2.200566581499E+03 DETOT  1.40E-02 tst  2.55E-02 PX  3.72E-01
 TTTTTTTTTTTTTTTTTTTTTTTTTTTTTT DIIS        TELAPSE        6.10 TCPU        6.01
 DIIS TEST: 0.77687E+01 AT SCF   CYCLE   2 - DIIS ACTIVE - HISTORY:     2 CYCLES
 TTTTTTTTTTTTTTTTTTTTTTTTTTTTTT FDIK        TELAPSE        6.17 TCPU        6.08
 INSULATING STATE
 TOP OF VALENCE BANDS -    BAND     80; K    1; EIG -1.5144799E-01 AU
 BOTTOM OF VIRTUAL BANDS - BAND     81; K    1; EIG  2.0150342E-02 AU
 DIRECT ENERGY BAND GAP:   4.6694 eV
 TTTTTTTTTTTTTTTTTTTTTTTTTTTTTT PDIG        TELAPSE        6.28 TCPU        6.19
 TTTTTTTTTTTTTTTTTTTTTTTTTTTTTT MOQGAD      TELAPSE        6.29 TCPU        6.20
 TTTTTTTTTTTTTTTTTTTTTTTTTTTTTT SHELLXN     TELAPSE        7.53 TCPU        7.44
 TTTTTTTTTTTTTTTTTTTTTTTTTTTTTT MONMO3      TELAPSE        7.56 TCPU        7.46
 NUMERICALLY INTEGRATED DENSITY    160.0004954891
 TTTTTTTTTTTTTTTTTTTTTTTTTTTTTT NUMDFT      TELAPSE        7.66 TCPU        7.57
 CYC   3 ETOT(AU) -2.201388375090E+03 DETOT -8.22E-01 tst  5.08E-03 PX  2.27E-01
 TTTTTTTTTTTTTTTTTTTTTTTTTTTTTT DIIS        TELAPSE        7.67 TCPU        7.58
 DIIS TEST: 0.48941E-03 AT SCF   CYCLE   3 - DIIS ACTIVE - HISTORY:     3 CYCLES
 TTTTTTTTTTTTTTTTTTTTTTTTTTTTTT FDIK        TELAPSE        7.74 TCPU        7.65
 INSULATING STATE
 TOP OF VALENCE BANDS -    BAND     80; K    1; EIG -1.5224809E-01 AU
 BOTTOM OF VIRTUAL BANDS - BAND     81; K    1; EIG  1.8723704E-02 AU
 DIRECT ENERGY BAND GAP:   4.6524 eV
 TTTTTTTTTTTTTTTTTTTTTTTTTTTTTT PDIG        TELAPSE        7.85 TCPU        7.76
 TTTTTTTTTTTTTTTTTTTTTTTTTTTTTT MOQGAD      TELAPSE        7.86 TCPU        7.77
 TTTTTTTTTTTTTTTTTTTTTTTTTTTTTT SHELLXN     TELAPSE        9.11 TCPU        9.01
 TTTTTTTTTTTTTTTTTTTTTTTTTTTTTT MONMO3      TELAPSE        9.13 TCPU        9.04
 NUMERICALLY INTEGRATED DENSITY    160.0004949658
 TTTTTTTTTTTTTTTTTTTTTTTTTTTTTT NUMDFT      TELAPSE        9.24 TCPU        9.14
 CYC   4 ETOT(AU) -2.201388473033E+03 DETOT -9.79E-05 tst  1.12E-06 PX  5.04E-03
 TTTTTTTTTTTTTTTTTTTTTTTTTTTTTT DIIS        TELAPSE        9.24 TCPU        9.15
 DIIS TEST: 0.41416E-04 AT SCF   CYCLE   4 - DIIS ACTIVE - HISTORY:     4 CYCLES
 TTTTTTTTTTTTTTTTTTTTTTTTTTTTTT FDIK        TELAPSE        9.32 TCPU        9.22
 INSULATING STATE
 TOP OF VALENCE BANDS -    BAND     80; K    1; EIG -1.5249295E-01 AU
 BOTTOM OF VIRTUAL BANDS - BAND     81; K    1; EIG  1.8259347E-02 AU
 DIRECT ENERGY BAND GAP:   4.6464 eV
 TTTTTTTTTTTTTTTTTTTTTTTTTTTTTT PDIG        TELAPSE        9.43 TCPU        9.33
 TTTTTTTTTTTTTTTTTTTTTTTTTTTTTT MOQGAD      TELAPSE        9.44 TCPU        9.34
 TTTTTTTTTTTTTTTTTTTTTTTTTTTTTT SHELLXN     TELAPSE       10.68 TCPU       10.58
 TTTTTTTTTTTTTTTTTTTTTTTTTTTTTT MONMO3      TELAPSE       10.70 TCPU       10.61
 NUMERICALLY INTEGRATED DENSITY    160.0004949221
 TTTTTTTTTTTTTTTTTTTTTTTTTTTTTT NUMDFT      TELAPSE       10.81 TCPU       10.71
 CYC   5 ETOT(AU) -2.201388481244E+03 DETOT -8.21E-06 tst  8.79E-08 PX  9.10E-04
 TTTTTTTTTTTTTTTTTTTTTTTTTTTTTT DIIS        TELAPSE       10.81 TCPU       10.72
 DIIS TEST: 0.72401E-06 AT SCF   CYCLE   5 - DIIS ACTIVE - HISTORY:     5 CYCLES
 TTTTTTTTTTTTTTTTTTTTTTTTTTTTTT FDIK        TELAPSE       10.89 TCPU       10.79
 INSULATING STATE
 TOP OF VALENCE BANDS -    BAND     80; K    1; EIG -1.5255578E-01 AU
 BOTTOM OF VIRTUAL BANDS - BAND     81; K    1; EIG  1.8203870E-02 AU
 DIRECT ENERGY BAND GAP:   4.6466 eV
 TTTTTTTTTTTTTTTTTTTTTTTTTTTTTT PDIG        TELAPSE       11.00 TCPU       10.90
 TTTTTTTTTTTTTTTTTTTTTTTTTTTTTT MOQGAD      TELAPSE       11.01 TCPU       10.91
 TTTTTTTTTTTTTTTTTTTTTTTTTTTTTT SHELLXN     TELAPSE       12.25 TCPU       12.16
 TTTTTTTTTTTTTTTTTTTTTTTTTTTTTT MONMO3      TELAPSE       12.28 TCPU       12.18
 NUMERICALLY INTEGRATED DENSITY    160.0004949449
 TTTTTTTTTTTTTTTTTTTTTTTTTTTTTT NUMDFT      TELAPSE       12.38 TCPU       12.28
 CYC   6 ETOT(AU) -2.201388481349E+03 DETOT -1.05E-07 tst  1.38E-09 PX  1.06E-04
 TTTTTTTTTTTTTTTTTTTTTTTTTTTTTT DIIS        TELAPSE       12.38 TCPU       12.29
 DIIS TEST: 0.10788E-08 AT SCF   CYCLE   6 - DIIS ACTIVE - HISTORY:     6 CYCLES
 TTTTTTTTTTTTTTTTTTTTTTTTTTTTTT FDIK        TELAPSE       12.47 TCPU       12.37
 INSULATING STATE
 TOP OF VALENCE BANDS -    BAND     80; K    1; EIG -1.5255884E-01 AU
 BOTTOM OF VIRTUAL BANDS - BAND     81; K    1; EIG  1.8201307E-02 AU
 DIRECT ENERGY BAND GAP:   4.6466 eV
 TTTTTTTTTTTTTTTTTTTTTTTTTTTTTT PDIG        TELAPSE       12.58 TCPU       12.48
 TTTTTTTTTTTTTTTTTTTTTTTTTTTTTT MOQGAD      TELAPSE       12.59 TCPU       12.49
 TTTTTTTTTTTTTTTTTTTTTTTTTTTTTT SHELLXN     TELAPSE       13.84 TCPU       13.74
 TTTTTTTTTTTTTTTTTTTTTTTTTTTTTT MONMO3      TELAPSE       13.86 TCPU       13.76
 NUMERICALLY INTEGRATED DENSITY    160.0004949443
 TTTTTTTTTTTTTTTTTTTTTTTTTTTTTT NUMDFT      TELAPSE       13.96 TCPU       13.86
 CYC   7 ETOT(AU) -2.201388481348E+03 DETOT  6.88E-10 tst  1.58E-12 PX  1.84E-06
 TTTTTTTTTTTTTTTTTTTTTTTTTTTTTT DIIS        TELAPSE       13.97 TCPU       13.87
 DIIS TEST: 0.43310E-11 AT SCF   CYCLE   7 - DIIS ACTIVE - HISTORY:     7 CYCLES
 TTTTTTTTTTTTTTTTTTTTTTTTTTTTTT FDIK        TELAPSE       14.04 TCPU       13.94
 INSULATING STATE
 TOP OF VALENCE BANDS -    BAND     80; K    1; EIG -1.5255892E-01 AU
 BOTTOM OF VIRTUAL BANDS - BAND     81; K    1; EIG  1.8201245E-02 AU
 DIRECT ENERGY BAND GAP:   4.6466 eV
 TTTTTTTTTTTTTTTTTTTTTTTTTTTTTT PDIG        TELAPSE       14.15 TCPU       14.05
 TTTTTTTTTTTTTTTTTTTTTTTTTTTTTT MOQGAD      TELAPSE       14.16 TCPU       14.06
 TTTTTTTTTTTTTTTTTTTTTTTTTTTTTT SHELLXN     TELAPSE       15.41 TCPU       15.30
 TTTTTTTTTTTTTTTTTTTTTTTTTTTTTT MONMO3      TELAPSE       15.43 TCPU       15.33
 NUMERICALLY INTEGRATED DENSITY    160.0004949443
 TTTTTTTTTTTTTTTTTTTTTTTTTTTTTT NUMDFT      TELAPSE       15.53 TCPU       15.43
 CYC   8 ETOT(AU) -2.201388481348E+03 DETOT  4.46E-11 tst  2.63E-14 PX  3.01E-07
 TTTTTTTTTTTTTTTTTTTTTTTTTTTTTT DIIS        TELAPSE       15.54 TCPU       15.44
 DIIS TEST: 0.87962E-11 AT SCF   CYCLE   8 - DIIS ACTIVE - HISTORY:     8 CYCLES
 TTTTTTTTTTTTTTTTTTTTTTTTTTTTTT FDIK        TELAPSE       15.62 TCPU       15.52
 INSULATING STATE
 TOP OF VALENCE BANDS -    BAND     80; K    1; EIG -1.5255893E-01 AU
 BOTTOM OF VIRTUAL BANDS - BAND     81; K    1; EIG  1.8201238E-02 AU
 DIRECT ENERGY BAND GAP:   4.6466 eV
 TTTTTTTTTTTTTTTTTTTTTTTTTTTTTT PDIG        TELAPSE       15.73 TCPU       15.62
 TTTTTTTTTTTTTTTTTTTTTTTTTTTTTT MOQGAD      TELAPSE       15.74 TCPU       15.63
 TTTTTTTTTTTTTTTTTTTTTTTTTTTTTT SHELLXN     TELAPSE       16.98 TCPU       16.88
 ::: PSEUDO TOTAL   ENERGY                        -2.0011085132122E+03
 ::: VIRIAL COEFFICIENT                            1.0443052142459E+00
 TTTTTTTTTTTTTTTTTTTTTTTTTTTTTT MONMO3      TELAPSE       17.00 TCPU       16.90
 NUMERICALLY INTEGRATED DENSITY    160.0004949443
 EXCHANGE ENERGY: -0.194426066623E+03  CORRELATION ENERGY: -0.585390151315E+01
 TTTTTTTTTTTTTTTTTTTTTTTTTTTTTT NUMDFT      TELAPSE       17.11 TCPU       17.00
 CYC   9 ETOT(AU) -2.201388481348E+03 DETOT -1.77E-11 tst  1.15E-14 PX  3.01E-07

 == SCF ENDED - CONVERGENCE ON ENERGY      E(AU) -2.2013884813483E+03 CYCLES   9


 ENERGY EXPRESSION=HARTREE+FOCK EXCH*0.00000+(PBE        EXCH)*1.00000+PBE        CORR


 TOTAL ENERGY(DFT)(AU)(  9) -2.2013884813483E+03 DE-1.8E-11 tester 1.2E-14
 TTTTTTTTTTTTTTTTTTTTTTTTTTTTTT EDFT        TELAPSE       17.11 TCPU       17.00

 VOLUME OF PRIMITIVE CELL (A^3)=         155.538751008734
 *******************************************************************************
 LATTICE PARAMETERS (ANGSTROMS AND DEGREES) - BOHR = 0.5291772083 ANGSTROM
 PRIMITIVE CELL - CENTRING CODE 1/0 VOLUME=   155.538751 - DENSITY  3.415 g/cm^3
         A              B              C           ALPHA      BETA       GAMMA 
     6.03649069     6.03649069     6.03649069    60.000000  60.000000  60.000000
 *******************************************************************************
 ATOMS IN THE ASYMMETRIC UNIT    5 - ATOMS IN THE UNIT CELL:   16
     ATOM                 X/A                 Y/B                 Z/C    
 *******************************************************************************
      1 T  12 MG    0.000000000000E+00  0.000000000000E+00  0.000000000000E+00
      2 T   8 O     2.500000000000E-01  2.500000000000E-01  2.500000000000E-01
      3 T  12 MG    0.000000000000E+00 -5.000000000000E-01  0.000000000000E+00
      4 F  12 MG   -2.220446049250E-16 -5.000000000000E-01 -5.000000000000E-01
      5 F  12 MG   -5.000000000000E-01  0.000000000000E+00  0.000000000000E+00
      6 F  12 MG   -5.000000000000E-01 -2.775557561563E-17 -5.000000000000E-01
      7 F  12 MG   -5.000000000000E-01 -5.000000000000E-01  0.000000000000E+00
      8 T  12 MG   -5.000000000000E-01 -5.000000000000E-01 -5.000000000000E-01
      9 F  12 MG    0.000000000000E+00  0.000000000000E+00 -5.000000000000E-01
     10 T   8 O     2.500000000000E-01  2.500000000000E-01 -2.500000000000E-01
     11 F   8 O     2.500000000000E-01 -2.500000000000E-01  2.500000000000E-01
     12 F   8 O     2.500000000000E-01 -2.500000000000E-01 -2.500000000000E-01
     13 F   8 O    -2.500000000000E-01  2.500000000000E-01  2.500000000000E-01
     14 F   8 O    -2.500000000000E-01  2.500000000000E-01 -2.500000000000E-01
     15 F   8 O    -2.500000000000E-01 -2.500000000000E-01  2.500000000000E-01
     16 F   8 O    -2.500000000000E-01 -2.500000000000E-01 -2.500000000000E-01

 T = ATOM BELONGING TO THE ASYMMETRIC UNIT
 TTTTTTTTTTTTTTTTTTTTTTTTTTTTTT gordsh1     TELAPSE       17.12 TCPU       17.01

 MATRIX SIZE: P(G)  191864, F(G)   96432, P(G) IRR    5464, F(G) IRR    5464
 MAX G-VECTOR INDEX FOR 1- AND 2-ELECTRON INTEGRALS 133

 TTTTTTTTTTTTTTTTTTTTTTTTTTTTTT INPUT       TELAPSE       17.12 TCPU       17.01

 NEIGHBORS OF THE NON-EQUIVALENT ATOMS

 N = NUMBER OF NEIGHBORS AT DISTANCE R
    ATOM  N     R/ANG      R/AU   NEIGHBORS (ATOM LABELS AND CELL INDICES)
   1 MG   6     2.1342     4.0331   10 O    0 0 0   11 O    0 0 0   12 O    0 0 0
                                    13 O    0 0 0   14 O    0 0 0   15 O    0 0 0
   1 MG  12     3.0182     5.7037    3 MG   0 0 0    3 MG   0-1 0    4 MG   0-1 0
                                     4 MG   0 0-1    5 MG   0 0 0    5 MG  -1 0 0
                                     6 MG   0 0-1    6 MG  -1 0 0    7 MG  -1 0 0
                                     7 MG   0-1 0    9 MG   0 0 0    9 MG   0 0-1
   1 MG   8     3.6966     6.9855    2 O    0 0 0    2 O   -1 0 0    2 O    0-1 0
                                     2 O    0 0-1   16 O    0 0 0   16 O    1 0 0
                                    16 O    0 1 0   16 O    0 0 1
   1 MG   6     4.2684     8.0662    8 MG  -1 0 0    8 MG   0-1 0    8 MG   0 0-1
                                     8 MG  -1-1 0    8 MG  -1 0-1    8 MG   0-1-1
   1 MG  24     4.7723     9.0183   10 O   -1 0 0   10 O   -1 0 1   10 O    0-1 0
                                    10 O    0-1 1   11 O    0 0-1   11 O    0 1-1
                                    11 O   -1 0 0   11 O   -1 1 0   12 O    0 1 0
                                    12 O   -1 1 0   12 O    0 0 1   12 O   -1 0 1
                                    13 O    0-1 0   13 O    1-1 0   13 O    0 0-1
                                    13 O    1 0-1   14 O    0 0 1   14 O    0-1 1
                                    14 O    1 0 0   14 O    1-1 0   15 O    1 0 0
                                    15 O    1 0-1   15 O    0 1 0   15 O    0 1-1
   1 MG  24     5.2278     9.8790    3 MG  -1 0 0    3 MG   1-1 0    3 MG   0-1 1
                                     3 MG   0 0-1    4 MG  -1 0 0    4 MG   1-1-1
                                     4 MG   0-1-1    4 MG   0 0 0    5 MG   0 0-1
                                     5 MG  -1 0 1    5 MG  -1 1 0    5 MG   0-1 0
                                     6 MG   0-1 0    6 MG  -1 1-1    6 MG  -1 0-1
                                     6 MG   0 0 0    7 MG   0 0-1    7 MG  -1-1 1
                                     7 MG  -1-1 0    7 MG   0 0 0    9 MG   0-1 0
                                     9 MG   0 1-1    9 MG   1 0-1    9 MG  -1 0 0

   2 O    6     2.1342     4.0331    3 MG   0 0 0    4 MG   0 0 0    5 MG   0 0 0
                                     6 MG   0 0 0    7 MG   0 0 0    9 MG   0 0 0
   2 O   12     3.0182     5.7037   10 O    0 0 0   10 O    0 0 1   11 O    0 0 0
                                    11 O    0 1 0   12 O    0 0 1   12 O    0 1 0
                                    13 O    0 0 0   13 O    1 0 0   14 O    0 0 1
                                    14 O    1 0 0   15 O    1 0 0   15 O    0 1 0
   2 O    8     3.6966     6.9855    1 MG   0 0 0    1 MG   1 0 0    1 MG   0 1 0
                                     1 MG   0 0 1    8 MG   0 0 0    8 MG  -1 0 0
                                     8 MG   0-1 0    8 MG   0 0-1
   2 O    6     4.2684     8.0662   16 O    1 0 0   16 O    0 1 0   16 O    0 0 1
                                    16 O    1 1 0   16 O    1 0 1   16 O    0 1 1
   2 O   24     4.7723     9.0183    3 MG   1 0 0    3 MG   1-1 0    3 MG   0-1 1
                                     3 MG   0 0 1    4 MG   1-1 0    4 MG   1 0-1
                                     4 MG   0 0-1    4 MG   0-1 0    5 MG   0 0 1
                                     5 MG  -1 0 1    5 MG  -1 1 0    5 MG   0 1 0
                                     6 MG   0 1-1    6 MG  -1 1 0    6 MG  -1 0 0
                                     6 MG   0 0-1    7 MG  -1 0 1    7 MG   0-1 1
                                     7 MG   0-1 0    7 MG  -1 0 0    9 MG   0 1 0
                                     9 MG   0 1-1    9 MG   1 0-1    9 MG   1 0 0
   2 O   24     5.2278     9.8790   10 O    1 0 0   10 O   -1 0 1   10 O    0 1 0
                                    10 O    0-1 1   11 O    0 0 1   11 O    0 1-1
                                    11 O    1 0 0   11 O   -1 1 0   12 O    1 0 0
                                    12 O   -1 1 1   12 O    0 0 0   12 O    0 1 1
                                    13 O    0 1 0   13 O    1-1 0   13 O    0 0 1
                                    13 O    1 0-1   14 O    0 0 0   14 O    1 0 1
                                    14 O    0 1 0   14 O    1-1 1   15 O    0 0 0
                                    15 O    1 1 0   15 O    0 0 1   15 O    1 1-1

   3 MG   6     2.1342     4.0331    2 O    0 0 0   10 O    0 0 0   12 O    0 1 0
                                    13 O    0 0 0   15 O    0 1 0   16 O    0 1 0
   3 MG  12     3.0182     5.7037    1 MG   0 0 0    1 MG   0 1 0    4 MG   0 0 0
                                     4 MG   0 0-1    5 MG   0 0 0    5 MG  -1 1 0
                                     7 MG   0 0 0    7 MG  -1 0 0    8 MG   0 0-1
                                     8 MG  -1 0 0    9 MG   0 0 0    9 MG   0 1-1
   3 MG   8     3.6966     6.9855   11 O    0 1-1   11 O    0 0 0   11 O    0 1 0
                                    11 O   -1 1 0   14 O    0 0 1   14 O    0 0 0
                                    14 O    0 1 0   14 O    1 0 0
   3 MG   6     4.2684     8.0662    6 MG   0 0 0    6 MG  -1 1 0    6 MG   0 1-1
                                     6 MG   0 0-1    6 MG  -1 0 0    6 MG  -1 1-1
   3 MG  24     4.7723     9.0183    2 O   -1 0 0    2 O   -1 1 0    2 O    0 1-1
                                     2 O    0 0-1   10 O   -1 0 1   10 O   -1 1 0
                                    10 O    0 1 0   10 O    0 0 1   12 O   -1 1 1
                                    12 O    0 0 1   12 O    0 0 0   12 O   -1 1 0
                                    13 O    1 0-1   13 O    1 0 0   13 O    0 1 0
                                    13 O    0 1-1   15 O    1 1-1   15 O    0 1-1
                                    15 O    0 0 0   15 O    1 0 0   16 O    0 1 1
                                    16 O    0 0 1   16 O    1 0 0   16 O    1 1 0
   3 MG  24     5.2278     9.8790    1 MG   1 0 0    1 MG  -1 1 0    1 MG   0 1-1
                                     1 MG   0 0 1    4 MG  -1 0 0    4 MG   1 0-1
                                     4 MG   0-1 0    4 MG   0 1-1    5 MG  -1 0 0
                                     5 MG   0 1 0    5 MG  -1 0 1    5 MG   0 1-1
                                     7 MG   0-1 0    7 MG  -1 1 0    7 MG   0 0-1
                                     7 MG  -1 0 1    8 MG   0-1 0    8 MG  -1 1-1
                                     8 MG  -1 0-1    8 MG   0 0 0    9 MG   1 0-1
                                     9 MG  -1 1 0    9 MG   0 0-1    9 MG   0 1 0

   8 MG   6     2.1342     4.0331   10 O    0 0 1   11 O    0 1 0   12 O    0 1 1
                                    13 O    1 0 0   14 O    1 0 1   15 O    1 1 0
   8 MG  12     3.0182     5.7037    3 MG   0 0 1    3 MG   1 0 0    4 MG   0 0 0
                                     4 MG   1 0 0    5 MG   0 1 0    5 MG   0 0 1
                                     6 MG   0 0 0    6 MG   0 1 0    7 MG   0 0 0
                                     7 MG   0 0 1    9 MG   1 0 0    9 MG   0 1 0
   8 MG   8     3.6966     6.9855    2 O    0 0 0    2 O    1 0 0    2 O    0 1 0
                                     2 O    0 0 1   16 O    1 1 1   16 O    1 0 1
                                    16 O    0 1 1   16 O    1 1 0
   8 MG   6     4.2684     8.0662    1 MG   1 0 0    1 MG   0 1 0    1 MG   0 0 1
                                     1 MG   1 1 0    1 MG   1 0 1    1 MG   0 1 1
   8 MG  24     4.7723     9.0183   10 O    1 0 0   10 O    0 1 0   10 O    1 0 1
                                    10 O    0 1 1   11 O    0 0 1   11 O    1 0 0
                                    11 O    0 1 1   11 O    1 1 0   12 O    1 0 1
                                    12 O    0 0 1   12 O    1 1 0   12 O    0 1 0
                                    13 O    0 1 0   13 O    0 0 1   13 O    1 1 0
                                    13 O    1 0 1   14 O    0 0 1   14 O    0 1 1
                                    14 O    1 0 0   14 O    1 1 0   15 O    1 0 0
                                    15 O    1 0 1   15 O    0 1 0   15 O    0 1 1
   8 MG  24     5.2278     9.8790    3 MG   0 1 0    3 MG   1-1 1    3 MG   1 0 1
                                     3 MG   0 0 0    4 MG   0 0 1    4 MG   1 0-1
                                     4 MG   1-1 0    4 MG   0 1 0    5 MG   1 0 0
                                     5 MG  -1 1 1    5 MG   0 1 1    5 MG   0 0 0
                                     6 MG   1 0 0    6 MG  -1 1 0    6 MG   0 1-1
                                     6 MG   0 0 1    7 MG   0 1 0    7 MG   0-1 1
                                     7 MG  -1 0 1    7 MG   1 0 0    9 MG   0 0 1
                                     9 MG   1 1-1    9 MG   1 1 0    9 MG   0 0 0

  10 O    6     2.1342     4.0331    1 MG   0 0 0    3 MG   0 0 0    4 MG   0 0-1
                                     5 MG   0 0 0    6 MG   0 0-1    8 MG   0 0-1
  10 O   12     3.0182     5.7037    2 O    0 0 0    2 O    0 0-1   11 O    0 0 0
                                    11 O    0 1-1   12 O    0 0 0   12 O    0 1 0
                                    13 O    0 0 0   13 O    1 0-1   14 O    0 0 0
                                    14 O    1 0 0   16 O    1 0 0   16 O    0 1 0
  10 O    8     3.6966     6.9855    7 MG   0 0 0    7 MG  -1 0 0    7 MG   0-1 0
                                     7 MG   0 0-1    9 MG   0 1-1    9 MG   0 0-1
                                     9 MG   0 0 0    9 MG   1 0-1
  10 O    6     4.2684     8.0662   15 O    0 0 0   15 O    0 1-1   15 O    1 0-1
                                    15 O    1 0 0   15 O    0 1 0   15 O    1 1-1
  10 O   24     4.7723     9.0183    1 MG   1 0 0    1 MG   1 0-1    1 MG   0 1 0
                                     1 MG   0 1-1    3 MG   1 0-1    3 MG   1-1 0
                                     3 MG   0-1 0    3 MG   0 0-1    4 MG   1 0-1
                                     4 MG   0 0 0    4 MG   0-1 0    4 MG   1-1-1
                                     5 MG   0 1-1    5 MG   0 0-1    5 MG  -1 0 0
                                     5 MG  -1 1 0    6 MG   0 1-1    6 MG  -1 1-1
                                     6 MG  -1 0 0    6 MG   0 0 0    8 MG  -1 0 0
                                     8 MG   0-1 0    8 MG  -1 0-1    8 MG   0-1-1
  10 O   24     5.2278     9.8790    2 O   -1 0 0    2 O    1 0-1    2 O    0-1 0
                                     2 O    0 1-1   11 O    1 0-1   11 O   -1 1 0
                                    11 O    0 1 0   11 O    0 0-1   12 O   -1 1 0
                                    12 O    1 0 0   12 O    0 0 1   12 O    0 1-1
                                    13 O    1-1 0   13 O    0 1-1   13 O    0 0-1
                                    13 O    1 0 0   14 O    0 1 0   14 O    1-1 0
                                    14 O    1 0-1   14 O    0 0 1   16 O    0 0 0
                                    16 O    1 1 0   16 O    0 0 1   16 O    1 1-1


 SYMMETRY ALLOWED ELASTIC DISTORTION 1
  0.5773503  0.0000000  0.0000000
  0.0000000  0.5773503  0.0000000
  0.0000000  0.0000000  0.5773503

 SYMMETRY ALLOWED INTERNAL DEGREE(S) OF FREEDOM:   1
 TTTTTTTTTTTTTTTTTTTTTTTTTTTTTT SYMM        TELAPSE       17.14 TCPU       17.02
 TTTTTTTTTTTTTTTTTTTTTTTTTTTTTT INT_SCREEN  TELAPSE       17.14 TCPU       17.02

 *******************************************************************************
 * CELL DEFORMATION
 *******************************************************************************

    ELASTIC STRAIN MATRIX (ADIMENSIONAL)

    1   -0.0101017008    0.0000000000    0.0000000000
    2    0.0000000000   -0.0101017008    0.0000000000
    3    0.0000000000    0.0000000000   -0.0101017008

 LATTICE PARAMETERS (ANGSTROMS AND DEGREES) OF
 (1) ORIGINAL PRIMITIVE CELL
 (2) ORIGINAL CRYSTALLOGRAPHIC CELL
 (3) DEFORMED PRIMITIVE CELL
 (4) DEFORMED CRYSTALLOGRAPHIC CELL

            A           B           C        ALPHA       BETA        GAMMA         VOL
 (2)    6.036491    6.036491    6.036491   60.000000   60.000000   60.000000  155.538751
 (4)    5.975512    5.975512    5.975512   60.000000   60.000000   60.000000  150.872588

 * CELL DEFORMATION COMPLETE - NO. OF SYMMOPS  48
 *******************************************************************************
 LATTICE PARAMETERS (ANGSTROMS AND DEGREES) - BOHR = 0.5291772083 ANGSTROM
 PRIMITIVE CELL - CENTRING CODE 1/0 VOLUME=   150.872588 - DENSITY  3.520 g/cm^3
         A              B              C           ALPHA      BETA       GAMMA 
     5.97551187     5.97551187     5.97551187    60.000000  60.000000  60.000000
 *******************************************************************************
 ATOMS IN THE ASYMMETRIC UNIT    5 - ATOMS IN THE UNIT CELL:   16
     ATOM                 X/A                 Y/B                 Z/C    
 *******************************************************************************
      1 T  12 MG    0.000000000000E+00  0.000000000000E+00  0.000000000000E+00
      2 T   8 O     2.500000000000E-01  2.500000000000E-01  2.500000000000E-01
      3 T  12 MG    0.000000000000E+00 -5.000000000000E-01  0.000000000000E+00
      4 F  12 MG   -1.942890293094E-16 -5.000000000000E-01 -5.000000000000E-01
      5 F  12 MG    5.000000000000E-01  0.000000000000E+00  0.000000000000E+00
      6 F  12 MG   -5.000000000000E-01 -1.387778780781E-16 -5.000000000000E-01
      7 F  12 MG   -5.000000000000E-01 -5.000000000000E-01  0.000000000000E+00
      8 T  12 MG   -5.000000000000E-01 -5.000000000000E-01 -5.000000000000E-01
      9 F  12 MG    0.000000000000E+00  0.000000000000E+00 -5.000000000000E-01
[...]
-rw-r--r-- 1 erba users    253920 Sep 12 15:34 fort.11.pe02
-rw-r--r-- 1 erba users    253920 Sep 12 15:34 fort.11.pe03
-rw-r--r-- 1 erba users    253920 Sep 12 15:34 fort.11.pe04
-rw-r--r-- 1 erba users    253920 Sep 12 15:34 fort.11.pe05
-rw-r--r-- 1 erba users    253920 Sep 12 15:34 fort.11.pe06
-rw-r--r-- 1 erba users    253920 Sep 12 15:34 fort.11.pe07
-rw-r--r-- 1 erba users    253920 Sep 12 15:34 fort.11.pe08
-rw-r--r-- 1 erba users    253920 Sep 12 15:34 fort.11.pe09
-rw-r--r-- 1 erba users    253920 Sep 12 15:34 fort.11.pe10
-rw-r--r-- 1 erba users    253920 Sep 12 15:34 fort.11.pe11
-rw-r--r-- 1 erba users    253920 Sep 12 15:34 fort.11.pe12
-rw-r--r-- 1 erba users    253920 Sep 12 15:34 fort.11.pe13
-rw-r--r-- 1 erba users    253920 Sep 12 15:34 fort.11.pe14
-rw-r--r-- 1 erba users    253920 Sep 12 15:34 fort.11.pe15
-rw-r--r-- 1 erba users    253920 Sep 12 15:34 fort.11.pe16
-rw-r--r-- 1 erba users    253920 Sep 12 15:34 fort.11.pe17
-rw-r--r-- 1 erba users    253920 Sep 12 15:34 fort.11.pe18
-rw-r--r-- 1 erba users    253920 Sep 12 15:34 fort.11.pe19
-rw-r--r-- 1 erba users    198320 Sep 12 15:33 fort.12
-rw-r--r-- 1 erba users   1577928 Sep 12 15:32 fort.13
-rw-r--r-- 1 erba users         0 Sep 12 15:19 fort.17.pe01
-rw-r--r-- 1 erba users         0 Sep 12 15:19 fort.17.pe02
-rw-r--r-- 1 erba users         0 Sep 12 15:19 fort.17.pe03
-rw-r--r-- 1 erba users         0 Sep 12 15:19 fort.17.pe04
-rw-r--r-- 1 erba users         0 Sep 12 15:19 fort.17.pe05
-rw-r--r-- 1 erba users         0 Sep 12 15:19 fort.17.pe06
-rw-r--r-- 1 erba users         0 Sep 12 15:19 fort.17.pe07
-rw-r--r-- 1 erba users         0 Sep 12 15:19 fort.17.pe08
-rw-r--r-- 1 erba users         0 Sep 12 15:19 fort.17.pe09
-rw-r--r-- 1 erba users         0 Sep 12 15:19 fort.17.pe10
-rw-r--r-- 1 erba users         0 Sep 12 15:19 fort.17.pe11
-rw-r--r-- 1 erba users         0 Sep 12 15:19 fort.17.pe12
-rw-r--r-- 1 erba users         0 Sep 12 15:19 fort.17.pe13
-rw-r--r-- 1 erba users         0 Sep 12 15:19 fort.17.pe14
-rw-r--r-- 1 erba users         0 Sep 12 15:19 fort.17.pe15
-rw-r--r-- 1 erba users         0 Sep 12 15:19 fort.17.pe16
-rw-r--r-- 1 erba users         0 Sep 12 15:19 fort.17.pe17
-rw-r--r-- 1 erba users         0 Sep 12 15:19 fort.17.pe18
-rw-r--r-- 1 erba users         0 Sep 12 15:19 fort.17.pe19
-rw-r--r-- 1 erba users         0 Sep 12 15:19 fort.18.pe00
-rw-r--r-- 1 erba users         0 Sep 12 15:19 fort.18.pe01
-rw-r--r-- 1 erba users         0 Sep 12 15:19 fort.18.pe02
-rw-r--r-- 1 erba users         0 Sep 12 15:19 fort.18.pe03
-rw-r--r-- 1 erba users         0 Sep 12 15:19 fort.18.pe04
-rw-r--r-- 1 erba users         0 Sep 12 15:19 fort.18.pe05
-rw-r--r-- 1 erba users         0 Sep 12 15:19 fort.18.pe06
-rw-r--r-- 1 erba users         0 Sep 12 15:19 fort.18.pe07
-rw-r--r-- 1 erba users         0 Sep 12 15:19 fort.18.pe08
-rw-r--r-- 1 erba users         0 Sep 12 15:19 fort.18.pe09
-rw-r--r-- 1 erba users         0 Sep 12 15:19 fort.18.pe10
-rw-r--r-- 1 erba users         0 Sep 12 15:19 fort.18.pe11
-rw-r--r-- 1 erba users         0 Sep 12 15:19 fort.18.pe12
-rw-r--r-- 1 erba users         0 Sep 12 15:19 fort.18.pe13
-rw-r--r-- 1 erba users         0 Sep 12 15:19 fort.18.pe14
-rw-r--r-- 1 erba users         0 Sep 12 15:19 fort.18.pe15
-rw-r--r-- 1 erba users         0 Sep 12 15:19 fort.18.pe16
-rw-r--r-- 1 erba users         0 Sep 12 15:19 fort.18.pe17
-rw-r--r-- 1 erba users         0 Sep 12 15:19 fort.18.pe18
-rw-r--r-- 1 erba users         0 Sep 12 15:19 fort.18.pe19
-rw-r--r-- 1 erba users      3384 Sep 12 15:35 fort.19.pe00
-rw-r--r-- 1 erba users         0 Sep 12 15:19 fort.19.pe01
-rw-r--r-- 1 erba users         0 Sep 12 15:19 fort.19.pe02
-rw-r--r-- 1 erba users         0 Sep 12 15:19 fort.19.pe03
-rw-r--r-- 1 erba users         0 Sep 12 15:19 fort.19.pe04
-rw-r--r-- 1 erba users         0 Sep 12 15:19 fort.19.pe05
-rw-r--r-- 1 erba users         0 Sep 12 15:19 fort.19.pe06
-rw-r--r-- 1 erba users         0 Sep 12 15:19 fort.19.pe07
-rw-r--r-- 1 erba users         0 Sep 12 15:19 fort.19.pe08
-rw-r--r-- 1 erba users         0 Sep 12 15:19 fort.19.pe09
-rw-r--r-- 1 erba users         0 Sep 12 15:19 fort.19.pe10
-rw-r--r-- 1 erba users         0 Sep 12 15:19 fort.19.pe11
-rw-r--r-- 1 erba users         0 Sep 12 15:19 fort.19.pe12
-rw-r--r-- 1 erba users         0 Sep 12 15:19 fort.19.pe13
-rw-r--r-- 1 erba users         0 Sep 12 15:19 fort.19.pe14
-rw-r--r-- 1 erba users         0 Sep 12 15:19 fort.19.pe15
-rw-r--r-- 1 erba users         0 Sep 12 15:19 fort.19.pe16
-rw-r--r-- 1 erba users         0 Sep 12 15:19 fort.19.pe17
-rw-r--r-- 1 erba users         0 Sep 12 15:19 fort.19.pe18
-rw-r--r-- 1 erba users         0 Sep 12 15:19 fort.19.pe19
-rw-r--r-- 1 erba users         0 Sep 12 15:19 fort.1.pe00
-rw-r--r-- 1 erba users         0 Sep 12 15:19 fort.1.pe01
-rw-r--r-- 1 erba users         0 Sep 12 15:19 fort.1.pe02
-rw-r--r-- 1 erba users         0 Sep 12 15:19 fort.1.pe03
-rw-r--r-- 1 erba users         0 Sep 12 15:19 fort.1.pe04
-rw-r--r-- 1 erba users         0 Sep 12 15:19 fort.1.pe05
-rw-r--r-- 1 erba users         0 Sep 12 15:19 fort.1.pe06
-rw-r--r-- 1 erba users         0 Sep 12 15:19 fort.1.pe07
-rw-r--r-- 1 erba users         0 Sep 12 15:19 fort.1.pe08
-rw-r--r-- 1 erba users         0 Sep 12 15:19 fort.1.pe09
-rw-r--r-- 1 erba users         0 Sep 12 15:19 fort.1.pe10
-rw-r--r-- 1 erba users         0 Sep 12 15:19 fort.1.pe11
-rw-r--r-- 1 erba users         0 Sep 12 15:19 fort.1.pe12
-rw-r--r-- 1 erba users         0 Sep 12 15:19 fort.1.pe13
-rw-r--r-- 1 erba users         0 Sep 12 15:19 fort.1.pe14
-rw-r--r-- 1 erba users         0 Sep 12 15:19 fort.1.pe15
-rw-r--r-- 1 erba users         0 Sep 12 15:19 fort.1.pe16
-rw-r--r-- 1 erba users         0 Sep 12 15:19 fort.1.pe17
-rw-r--r-- 1 erba users         0 Sep 12 15:19 fort.1.pe18
-rw-r--r-- 1 erba users         0 Sep 12 15:19 fort.1.pe19
-rw-r--r-- 1 erba users    576972 Sep 12 15:32 fort.20
-rw-r--r-- 1 erba users    264496 Sep 12 15:34 fort.21
-rw-r--r-- 1 erba users         0 Sep 12 15:20 fort.28
-rw-r--r-- 1 erba users         0 Sep 12 15:19 fort.28.pe00
-rw-r--r-- 1 erba users         0 Sep 12 15:19 fort.28.pe01
-rw-r--r-- 1 erba users         0 Sep 12 15:19 fort.28.pe02
-rw-r--r-- 1 erba users         0 Sep 12 15:19 fort.28.pe03
-rw-r--r-- 1 erba users         0 Sep 12 15:19 fort.28.pe04
-rw-r--r-- 1 erba users         0 Sep 12 15:19 fort.28.pe05
-rw-r--r-- 1 erba users         0 Sep 12 15:19 fort.28.pe06
-rw-r--r-- 1 erba users         0 Sep 12 15:19 fort.28.pe07
-rw-r--r-- 1 erba users         0 Sep 12 15:19 fort.28.pe08
-rw-r--r-- 1 erba users         0 Sep 12 15:19 fort.28.pe09
-rw-r--r-- 1 erba users         0 Sep 12 15:19 fort.28.pe10
-rw-r--r-- 1 erba users         0 Sep 12 15:19 fort.28.pe11
-rw-r--r-- 1 erba users         0 Sep 12 15:19 fort.28.pe12
-rw-r--r-- 1 erba users         0 Sep 12 15:19 fort.28.pe13
-rw-r--r-- 1 erba users         0 Sep 12 15:19 fort.28.pe14
-rw-r--r-- 1 erba users         0 Sep 12 15:19 fort.28.pe15
-rw-r--r-- 1 erba users         0 Sep 12 15:19 fort.28.pe16
-rw-r--r-- 1 erba users         0 Sep 12 15:19 fort.28.pe17
-rw-r--r-- 1 erba users         0 Sep 12 15:19 fort.28.pe18
-rw-r--r-- 1 erba users         0 Sep 12 15:19 fort.28.pe19
-rw-r--r-- 1 erba users         0 Sep 12 15:20 fort.29
-rw-r--r-- 1 erba users         0 Sep 12 15:19 fort.29.pe00
-rw-r--r-- 1 erba users         0 Sep 12 15:19 fort.29.pe01
-rw-r--r-- 1 erba users         0 Sep 12 15:19 fort.29.pe02
-rw-r--r-- 1 erba users         0 Sep 12 15:19 fort.29.pe03
-rw-r--r-- 1 erba users         0 Sep 12 15:19 fort.29.pe04
-rw-r--r-- 1 erba users         0 Sep 12 15:19 fort.29.pe05
-rw-r--r-- 1 erba users         0 Sep 12 15:19 fort.29.pe06
-rw-r--r-- 1 erba users         0 Sep 12 15:19 fort.29.pe07
-rw-r--r-- 1 erba users         0 Sep 12 15:19 fort.29.pe08
-rw-r--r-- 1 erba users         0 Sep 12 15:19 fort.29.pe09
-rw-r--r-- 1 erba users         0 Sep 12 15:19 fort.29.pe10
-rw-r--r-- 1 erba users         0 Sep 12 15:19 fort.29.pe11
-rw-r--r-- 1 erba users         0 Sep 12 15:19 fort.29.pe12
-rw-r--r-- 1 erba users         0 Sep 12 15:19 fort.29.pe13
-rw-r--r-- 1 erba users         0 Sep 12 15:19 fort.29.pe14
-rw-r--r-- 1 erba users         0 Sep 12 15:19 fort.29.pe15
-rw-r--r-- 1 erba users         0 Sep 12 15:19 fort.29.pe16
-rw-r--r-- 1 erba users         0 Sep 12 15:19 fort.29.pe17
-rw-r--r-- 1 erba users         0 Sep 12 15:19 fort.29.pe18
-rw-r--r-- 1 erba users         0 Sep 12 15:19 fort.29.pe19
-rw-r--r-- 1 erba users     10905 Sep 12 15:32 fort.33
-rw-r--r-- 1 erba users     13026 Sep 12 15:32 fort.34
-rw-r--r-- 1 erba users         0 Sep 12 15:19 fort.38.pe00
-rw-r--r-- 1 erba users         0 Sep 12 15:19 fort.38.pe01
-rw-r--r-- 1 erba users         0 Sep 12 15:19 fort.38.pe02
-rw-r--r-- 1 erba users         0 Sep 12 15:19 fort.38.pe03
-rw-r--r-- 1 erba users         0 Sep 12 15:19 fort.38.pe04
-rw-r--r-- 1 erba users         0 Sep 12 15:19 fort.38.pe05
-rw-r--r-- 1 erba users         0 Sep 12 15:19 fort.38.pe06
-rw-r--r-- 1 erba users         0 Sep 12 15:19 fort.38.pe07
-rw-r--r-- 1 erba users         0 Sep 12 15:19 fort.38.pe08
-rw-r--r-- 1 erba users         0 Sep 12 15:19 fort.38.pe09
-rw-r--r-- 1 erba users         0 Sep 12 15:19 fort.38.pe10
-rw-r--r-- 1 erba users         0 Sep 12 15:19 fort.38.pe11
-rw-r--r-- 1 erba users         0 Sep 12 15:19 fort.38.pe12
-rw-r--r-- 1 erba users         0 Sep 12 15:19 fort.38.pe13
-rw-r--r-- 1 erba users         0 Sep 12 15:19 fort.38.pe14
-rw-r--r-- 1 erba users         0 Sep 12 15:19 fort.38.pe15
-rw-r--r-- 1 erba users         0 Sep 12 15:19 fort.38.pe16
-rw-r--r-- 1 erba users         0 Sep 12 15:19 fort.38.pe17
-rw-r--r-- 1 erba users         0 Sep 12 15:19 fort.38.pe18
-rw-r--r-- 1 erba users         0 Sep 12 15:19 fort.38.pe19
-rw-r--r-- 1 erba users         0 Sep 12 15:19 fort.3.pe00
-rw-r--r-- 1 erba users         0 Sep 12 15:19 fort.3.pe01
-rw-r--r-- 1 erba users         0 Sep 12 15:19 fort.3.pe02
-rw-r--r-- 1 erba users         0 Sep 12 15:19 fort.3.pe03
-rw-r--r-- 1 erba users         0 Sep 12 15:19 fort.3.pe04
-rw-r--r-- 1 erba users         0 Sep 12 15:19 fort.3.pe05
-rw-r--r-- 1 erba users         0 Sep 12 15:19 fort.3.pe06
-rw-r--r-- 1 erba users         0 Sep 12 15:19 fort.3.pe07
-rw-r--r-- 1 erba users         0 Sep 12 15:19 fort.3.pe08
-rw-r--r-- 1 erba users         0 Sep 12 15:19 fort.3.pe09
-rw-r--r-- 1 erba users         0 Sep 12 15:19 fort.3.pe10
-rw-r--r-- 1 erba users         0 Sep 12 15:19 fort.3.pe11
-rw-r--r-- 1 erba users         0 Sep 12 15:19 fort.3.pe12
-rw-r--r-- 1 erba users         0 Sep 12 15:19 fort.3.pe13
-rw-r--r-- 1 erba users         0 Sep 12 15:19 fort.3.pe14
-rw-r--r-- 1 erba users         0 Sep 12 15:19 fort.3.pe15
-rw-r--r-- 1 erba users         0 Sep 12 15:19 fort.3.pe16
-rw-r--r-- 1 erba users         0 Sep 12 15:19 fort.3.pe17
-rw-r--r-- 1 erba users         0 Sep 12 15:19 fort.3.pe18
-rw-r--r-- 1 erba users         0 Sep 12 15:19 fort.3.pe19
-rw-r--r-- 1 erba users         0 Sep 12 15:19 fort.40.pe00
-rw-r--r-- 1 erba users         0 Sep 12 15:19 fort.40.pe01
-rw-r--r-- 1 erba users         0 Sep 12 15:19 fort.40.pe02
-rw-r--r-- 1 erba users         0 Sep 12 15:19 fort.40.pe03
-rw-r--r-- 1 erba users         0 Sep 12 15:19 fort.40.pe04
-rw-r--r-- 1 erba users         0 Sep 12 15:19 fort.40.pe05
-rw-r--r-- 1 erba users         0 Sep 12 15:19 fort.40.pe06
-rw-r--r-- 1 erba users         0 Sep 12 15:19 fort.40.pe07
-rw-r--r-- 1 erba users         0 Sep 12 15:19 fort.40.pe08
-rw-r--r-- 1 erba users         0 Sep 12 15:19 fort.40.pe09
-rw-r--r-- 1 erba users         0 Sep 12 15:19 fort.40.pe10
-rw-r--r-- 1 erba users         0 Sep 12 15:19 fort.40.pe11
-rw-r--r-- 1 erba users         0 Sep 12 15:19 fort.40.pe12
-rw-r--r-- 1 erba users         0 Sep 12 15:19 fort.40.pe13
-rw-r--r-- 1 erba users         0 Sep 12 15:19 fort.40.pe14
-rw-r--r-- 1 erba users         0 Sep 12 15:19 fort.40.pe15
-rw-r--r-- 1 erba users         0 Sep 12 15:19 fort.40.pe16
-rw-r--r-- 1 erba users         0 Sep 12 15:19 fort.40.pe17
-rw-r--r-- 1 erba users         0 Sep 12 15:19 fort.40.pe18
-rw-r--r-- 1 erba users         0 Sep 12 15:19 fort.40.pe19
-rw-r--r-- 1 erba users     16320 Sep 12 15:35 fort.61.pe00
-rw-r--r-- 1 erba users     12576 Sep 12 15:35 fort.61.pe01
-rw-r--r-- 1 erba users     14592 Sep 12 15:35 fort.61.pe02
-rw-r--r-- 1 erba users     14880 Sep 12 15:35 fort.61.pe03
-rw-r--r-- 1 erba users     12576 Sep 12 15:35 fort.61.pe04
-rw-r--r-- 1 erba users     12576 Sep 12 15:35 fort.61.pe05
-rw-r--r-- 1 erba users     12576 Sep 12 15:35 fort.61.pe06
-rw-r--r-- 1 erba users     13896 Sep 12 15:35 fort.61.pe07
-rw-r--r-- 1 erba users     16320 Sep 12 15:35 fort.61.pe08
-rw-r--r-- 1 erba users     12576 Sep 12 15:35 fort.61.pe09
-rw-r--r-- 1 erba users     12576 Sep 12 15:35 fort.61.pe10
-rw-r--r-- 1 erba users     28008 Sep 12 15:35 fort.61.pe11
-rw-r--r-- 1 erba users     26064 Sep 12 15:35 fort.61.pe12
-rw-r--r-- 1 erba users     25560 Sep 12 15:35 fort.61.pe13
-rw-r--r-- 1 erba users     21888 Sep 12 15:35 fort.61.pe14
-rw-r--r-- 1 erba users     33876 Sep 12 15:35 fort.61.pe15
-rw-r--r-- 1 erba users     31920 Sep 12 15:35 fort.61.pe16
-rw-r--r-- 1 erba users     24624 Sep 12 15:35 fort.61.pe17
-rw-r--r-- 1 erba users     30312 Sep 12 15:35 fort.61.pe18
-rw-r--r-- 1 erba users     29304 Sep 12 15:35 fort.61.pe19
-rw-r--r-- 1 erba users     19312 Sep 12 15:35 fort.62.pe00
-rw-r--r-- 1 erba users     12032 Sep 12 15:35 fort.62.pe01
-rw-r--r-- 1 erba users     13488 Sep 12 15:35 fort.62.pe02
-rw-r--r-- 1 erba users     21072 Sep 12 15:35 fort.62.pe03
-rw-r--r-- 1 erba users     17632 Sep 12 15:35 fort.62.pe04
-rw-r--r-- 1 erba users     18144 Sep 12 15:35 fort.62.pe05
-rw-r--r-- 1 erba users     23520 Sep 12 15:35 fort.62.pe06
-rw-r--r-- 1 erba users     17984 Sep 12 15:35 fort.62.pe07
-rw-r--r-- 1 erba users     15728 Sep 12 15:35 fort.62.pe08
-rw-r--r-- 1 erba users     25040 Sep 12 15:35 fort.62.pe09
-rw-r--r-- 1 erba users     18528 Sep 12 15:35 fort.62.pe10
-rw-r--r-- 1 erba users     18192 Sep 12 15:35 fort.62.pe11
-rw-r--r-- 1 erba users     14848 Sep 12 15:35 fort.62.pe12
-rw-r--r-- 1 erba users     14176 Sep 12 15:35 fort.62.pe13
-rw-r--r-- 1 erba users     20032 Sep 12 15:35 fort.62.pe14
-rw-r--r-- 1 erba users     19280 Sep 12 15:35 fort.62.pe15
-rw-r--r-- 1 erba users     20784 Sep 12 15:35 fort.62.pe16
-rw-r--r-- 1 erba users     17968 Sep 12 15:35 fort.62.pe17
-rw-r--r-- 1 erba users     20976 Sep 12 15:35 fort.62.pe18
-rw-r--r-- 1 erba users     21840 Sep 12 15:35 fort.62.pe19
-rw-r--r-- 1 erba users         0 Sep 12 15:19 fort.82.pe00
-rw-r--r-- 1 erba users         0 Sep 12 15:19 fort.82.pe01
-rw-r--r-- 1 erba users         0 Sep 12 15:19 fort.82.pe02
-rw-r--r-- 1 erba users         0 Sep 12 15:19 fort.82.pe03
-rw-r--r-- 1 erba users         0 Sep 12 15:19 fort.82.pe04
-rw-r--r-- 1 erba users         0 Sep 12 15:19 fort.82.pe05
-rw-r--r-- 1 erba users         0 Sep 12 15:19 fort.82.pe06
-rw-r--r-- 1 erba users         0 Sep 12 15:19 fort.82.pe07
-rw-r--r-- 1 erba users         0 Sep 12 15:19 fort.82.pe08
-rw-r--r-- 1 erba users         0 Sep 12 15:19 fort.82.pe09
-rw-r--r-- 1 erba users         0 Sep 12 15:19 fort.82.pe10
-rw-r--r-- 1 erba users         0 Sep 12 15:19 fort.82.pe11
-rw-r--r-- 1 erba users         0 Sep 12 15:19 fort.82.pe12
-rw-r--r-- 1 erba users         0 Sep 12 15:19 fort.82.pe13
-rw-r--r-- 1 erba users         0 Sep 12 15:19 fort.82.pe14
-rw-r--r-- 1 erba users         0 Sep 12 15:19 fort.82.pe15
-rw-r--r-- 1 erba users         0 Sep 12 15:19 fort.82.pe16
-rw-r--r-- 1 erba users         0 Sep 12 15:19 fort.82.pe17
-rw-r--r-- 1 erba users         0 Sep 12 15:19 fort.82.pe18
-rw-r--r-- 1 erba users         0 Sep 12 15:19 fort.82.pe19
-rw-r--r-- 1 erba users         0 Sep 12 15:19 fort.83.pe00
-rw-r--r-- 1 erba users         0 Sep 12 15:19 fort.83.pe01
-rw-r--r-- 1 erba users         0 Sep 12 15:19 fort.83.pe02
-rw-r--r-- 1 erba users         0 Sep 12 15:19 fort.83.pe03
-rw-r--r-- 1 erba users         0 Sep 12 15:19 fort.83.pe04
-rw-r--r-- 1 erba users         0 Sep 12 15:19 fort.83.pe05
-rw-r--r-- 1 erba users         0 Sep 12 15:19 fort.83.pe06
-rw-r--r-- 1 erba users         0 Sep 12 15:19 fort.83.pe07
-rw-r--r-- 1 erba users         0 Sep 12 15:19 fort.83.pe08
-rw-r--r-- 1 erba users         0 Sep 12 15:19 fort.83.pe09
-rw-r--r-- 1 erba users         0 Sep 12 15:19 fort.83.pe10
-rw-r--r-- 1 erba users         0 Sep 12 15:19 fort.83.pe11
-rw-r--r-- 1 erba users         0 Sep 12 15:19 fort.83.pe12
-rw-r--r-- 1 erba users         0 Sep 12 15:19 fort.83.pe13
-rw-r--r-- 1 erba users         0 Sep 12 15:19 fort.83.pe14
-rw-r--r-- 1 erba users         0 Sep 12 15:19 fort.83.pe15
-rw-r--r-- 1 erba users         0 Sep 12 15:19 fort.83.pe16
-rw-r--r-- 1 erba users         0 Sep 12 15:19 fort.83.pe17
-rw-r--r-- 1 erba users         0 Sep 12 15:19 fort.83.pe18
-rw-r--r-- 1 erba users         0 Sep 12 15:19 fort.83.pe19
-rw-r--r-- 1 erba users       720 Sep 12 15:35 fort.8.pe00
-rw-r--r-- 1 erba users   4758200 Sep 12 15:34 fort.8.pe01
-rw-r--r-- 1 erba users   2563448 Sep 12 15:34 fort.8.pe02
-rw-r--r-- 1 erba users   3874104 Sep 12 15:34 fort.8.pe03
-rw-r--r-- 1 erba users   4565176 Sep 12 15:34 fort.8.pe04
-rw-r--r-- 1 erba users   4951224 Sep 12 15:34 fort.8.pe05
-rw-r--r-- 1 erba users   3102008 Sep 12 15:34 fort.8.pe06
-rw-r--r-- 1 erba users   3142520 Sep 12 15:34 fort.8.pe07
-rw-r--r-- 1 erba users   1659368 Sep 12 15:34 fort.8.pe08
-rw-r--r-- 1 erba users   2164968 Sep 12 15:34 fort.8.pe09
-rw-r--r-- 1 erba users   2371096 Sep 12 15:34 fort.8.pe10
-rw-r--r-- 1 erba users   2754648 Sep 12 15:34 fort.8.pe11
-rw-r--r-- 1 erba users   2457160 Sep 12 15:34 fort.8.pe12
-rw-r--r-- 1 erba users   3570888 Sep 12 15:34 fort.8.pe13
-rw-r--r-- 1 erba users   3080056 Sep 12 15:34 fort.8.pe14
-rw-r--r-- 1 erba users   2938504 Sep 12 15:34 fort.8.pe15
-rw-r--r-- 1 erba users   3091168 Sep 12 15:34 fort.8.pe16
-rw-r--r-- 1 erba users   2394144 Sep 12 15:34 fort.8.pe17
-rw-r--r-- 1 erba users   2628064 Sep 12 15:34 fort.8.pe18
-rw-r--r-- 1 erba users   3290744 Sep 12 15:34 fort.8.pe19
-rw-r--r-- 1 erba users    576972 Sep 12 15:32 fort.9
-rw-r--r-- 1 erba users    277936 Sep 12 15:34 fort.95.pe00
-rw-r--r-- 1 erba users    277936 Sep 12 15:34 fort.95.pe01
-rw-r--r-- 1 erba users    277936 Sep 12 15:34 fort.95.pe02
-rw-r--r-- 1 erba users    277936 Sep 12 15:34 fort.95.pe03
-rw-r--r-- 1 erba users    277936 Sep 12 15:34 fort.95.pe04
-rw-r--r-- 1 erba users    277936 Sep 12 15:34 fort.95.pe05
-rw-r--r-- 1 erba users    277936 Sep 12 15:34 fort.95.pe06
-rw-r--r-- 1 erba users    277936 Sep 12 15:34 fort.95.pe07
-rw-r--r-- 1 erba users    277936 Sep 12 15:34 fort.95.pe08
-rw-r--r-- 1 erba users    277936 Sep 12 15:34 fort.95.pe09
-rw-r--r-- 1 erba users    277936 Sep 12 15:34 fort.95.pe10
-rw-r--r-- 1 erba users    277936 Sep 12 15:34 fort.95.pe11
-rw-r--r-- 1 erba users    277936 Sep 12 15:34 fort.95.pe12
-rw-r--r-- 1 erba users    277936 Sep 12 15:34 fort.95.pe13
-rw-r--r-- 1 erba users    277936 Sep 12 15:34 fort.95.pe14
-rw-r--r-- 1 erba users    277936 Sep 12 15:34 fort.95.pe15
-rw-r--r-- 1 erba users    277936 Sep 12 15:34 fort.95.pe16
-rw-r--r-- 1 erba users    277936 Sep 12 15:34 fort.95.pe17
-rw-r--r-- 1 erba users    277936 Sep 12 15:34 fort.95.pe18
-rw-r--r-- 1 erba users    277936 Sep 12 15:34 fort.95.pe19
-rw-r--r-- 1 erba users   1470610 Sep 12 15:32 fort.98
-rw-r--r-- 1 erba users    595655 Sep 12 15:35 FREQINFO.DAT
-rw-r--r-- 1 erba users     48960 Sep 12 15:35 HESSFREQ.DAT
-rw-r--r-- 1 erba users       233 Sep 12 15:19 INPUT
-rw-r--r-- 1 erba users     25536 Sep 12 15:35 MULLIKEN.DAT
-rw-r--r-- 1 erba users     13026 Sep 12 15:32 optc001
-rwxr-xr-x 1 erba users 300056536 Sep 12 15:19 Pcrystal-475135
lrwxrwxrwx 1 erba users        73 Sep 12 15:19 SCFOUT.LOG -> /home/erba/Mitoli/MSSC2024/QHA/MgO_supercell222/MgO_supercell222_QHA.out2
