
         
 *******************************************************************************
 *                                                                             *
 *                               CRYSTAL17                                     *
 *                      public : 1.0.2 - March 1st, 2018                       *
 *                       HTTP://WWW.CRYSTAL.UNITO.IT                           *
 *                                                                             *
 *                              MAIN AUTHORS                                   *
 *                                                                             *
 *  R. DOVESI(1,11), V.R. SAUNDERS(2), C. ROETTI(1,11), R. ORLANDO(1,11),      *
 *  C.M. ZICOVICH-WILSON(1,3), F. PASCALE(4), B. CIVALLERI(1,11),              *
 *  K. DOLL(5), N.M. HARRISON(2,6), I.J. BUSH(7), Ph. D'ARCO(8),               *
 *  M. LLUNELL(9), M. CAUSA'(10), Y. NOEL(8), L. MASCHIO(1,11), A. ERBA(1,11)  *
 *  M. RE'RAT(14), S. CASASSA(1,11)                                            *
 *                                                                             *
 *        CONTRIBUTIONS TO THE CODE HAVE ALSO BEEN GIVEN BY                    *
 *                                                                             *
 *  M. FERRABONE(1,11), M. DE LA PIERRE(1,11), M. FERRERO(1,11),               *
 *  J. BAIMA(1,11), E. ALBANESE(1,11), M.F. PEINTINGER(12), R. BAST(13),       *
 *  B. KIRTMAN(15), V. LACIVITA(1,11), R. DEMICHELIS(1,16)                     *
 *  G. BRANDEBURG(17), S. SALUSTRO(1,11), G. SANSONE(1,11)                     *
 *  M.T. RUGGIERO(18)                                                          *
 *                                                                             *
 * (1) THEORETICAL CHEMISTRY GROUP - UNIVERSITA' DI TORINO - TORINO (ITALY)    *
 * (2) COMPUTATIONAL SCIENCE & ENGINEERING DEPARTMENT - STFC DARESBURY (UK)    *
 * (3) UNIVERSIDAD AUTONOMA DEL ESTADO DE MORELOS - CUERNAVACA (MEXICO)        *
 * (4) UNIVERSITE' DE LORRAINE - NANCY (FRANCE)                                *
 * (5) UNIVERSITAET STUTTGART- STUTTGART (GERMANY)                             *
 * (6) IMPERIAL COLLEGE - LONDON (UK)                                          *
 * (7) OXFORD E-RESEARCH CENTRE - OXFORD (UK)                                  *
 * (8) UPMC - SORBONNE UNIVERSITES - PARIS (FRANCE)                            *
 * (9) UNIVERSIDAD DE BARCELONA - BARCELONA (SPAIN)                            *
 *(10) UNIVERSITA' DI NAPOLI "FEDERICO II" - NAPOLI (ITALY)                    *
 *(11) NIS - NANOSTRUCTURED INTERFACES AND SURFACES - TORINO (ITALY)           *
 *(12) MPI FUER CHEMISCHE ENERGIEKONVERSION - MUELHEIM AN DER RUHR (GERMANY)   *
 *(13) UNIVERSITY OF TROMSO - TROMSO (NORWAY)                                  *
 *(14) UNIVERSITE' DE PAU ET DES PAYS DE L'ADOUR - PAU (FRANCE)                *
 *(15) UNIVERSITY OF CALIFORNIA SANTA BARBARA - SANTA BARBARA (USA)            *
 *(16) CURTIN UNIVERSITY - PERTH (AUSTRALIA)                                   *
 *(17) UNIVERSITY COLLEGE LONDON - LONDON (UK)                                 *
 *(18) CAMBRIDGE UNIVERSITY - CAMBRIDGE (UK)                                   *
 *                                                                             *
 *******************************************************************************
 EEEEEEEEEE STARTING  DATE 24 09 2020 TIME 14:16:27.9
 UREA MOLECULE BASE 6-21 + POLARIZATION                                          

 MOLECULAR CALCULATION
 POINT  GROUP  N. 15                  :  MM2    OR  C2V  
 CORRESPONDING SPACE GROUP            :  P M M 2         


 NUMBER OF IRREDUCIBLE ATOMS IN THE CONVENTIONAL CELL:    5

 INPUT COORDINATES

 ATOM AT. N.              COORDINATES
   1   6     0.000000000000E+00 -2.167943141291E-21  4.221735629410E-02
   2   8     0.000000000000E+00 -7.701194671778E-21  1.259701956475E+00
   3   7     0.000000000000E+00  1.155851051230E+00 -7.098523234040E-01
   4   1     0.000000000000E+00  2.024448989086E+00 -2.015401989397E-01
   5   1     0.000000000000E+00  1.178200786464E+00 -1.716448634041E+00

 COORDINATES OF THE EQUIVALENT ATOMS (ANGSTROMS)

 N. ATOM EQUIV AT. N.          X                  Y                  Z

   1   1   1    6 C     0.00000000000E+00 -2.16794314129E-21  4.22173562941E-02

   2   2   1    8 O     0.00000000000E+00 -7.70119467178E-21  1.25970195648E+00

   3   3   1    7 N     0.00000000000E+00  1.15585105123E+00 -7.09852323404E-01
   4   3   2    7 N     0.00000000000E+00 -1.15585105123E+00 -7.09852323404E-01

   5   4   1    1 H     0.00000000000E+00  2.02444898909E+00 -2.01540198940E-01
   6   4   2    1 H     0.00000000000E+00 -2.02444898909E+00 -2.01540198940E-01

   7   5   1    1 H     0.00000000000E+00  1.17820078646E+00 -1.71644863404E+00
   8   5   2    1 H     0.00000000000E+00 -1.17820078646E+00 -1.71644863404E+00

 NUMBER OF SYMMETRY OPERATORS         :    4
 *******************************************************************************
 * GEOMETRY EDITING - INPUT COORDINATES ARE GIVEN IN ANGSTROM         
 *******************************************************************************

 GEOMETRY NOW FULLY CONSISTENT WITH THE GROUP
 INFORMATION **** NEW DEFAULT **** FINALRUN 4 FOR GEOMETRY OPTIMIZATIONS
 INFORMATION **** NEW DEFAULT **** OPTGEOM OPTIMIZES BOTH ATOMIC COORDINATES AND CELL PARAMETERS
 INFORMATION **** NEW DEFAULT **** TOL. ON ATOMIC DISP TO REDEFINE REF. GEOMETRY: 0.8 Angs
 INFORMATION **** NEW DEFAULT **** N POINTS TO REDEFINE REF. GEOMETRY: N OF OPT DEGS OF FREEDOM
 INFORMATION **** NEW DEFAULT **** TOL. ON ENERGY TO REDEFINE REF. GEOMETRY: 10**-3*(5*N. ATOMS)

 IMPORTANT INFORMATION:
 THE COORDINATE SYSTEM ADOPTED IN THE OPTIMIZATION IS NOT IN
 GENERAL HOMOGENEOUS UNITS. FOR THIS REASON THE GRADIENT AND 
 HESSIAN MATRIX IN TERMS OF THIS SYSTEM ARE GIVEN WITHOUT
 UNITS. FOR MORE DETAILS SEE THE MANUAL.

 *******************************************************************************
 ATOMIC POSITIONS OPTIMIZATION CONTROL

 INITIAL TRUST RADIUS         0.50000 MAXIMUM TRUST RADIUS               4.00000
 MAXIMUM GRADIENT COMPONENT   0.00045 MAXIMUM DISPLACEMENT COMPONENT     0.00180
 R.M.S. OF GRADIENT COMPONENT 0.00030 R.M.S. OF DISPLACEMENT COMPONENTS  0.00120
 THRESHOLD ON ENERGY CHANGE 0.100E-06 EXTRAPOLATING POLYNOMIAL ORDER           2
 MAXIMUM ALLOWED NUMBER OF STEPS   -1 SORTING OF ENERGY POINTS:               NO
 ANALYTICAL  GRADIENT                 HESSIAN UPDATING                      BFGS
 STEP SIZE NUMERICAL GRADIENT 0.00100
 INITIAL HESSIAN MATRIX: SCHLEGEL MODEL 2
 *******************************************************************************


 GEOMETRY FOR WAVE FUNCTION - DIMENSIONALITY OF THE SYSTEM    0
 (NON PERIODIC DIRECTION: LATTICE PARAMETER FORMALLY SET TO 500)
 *******************************************************************************
 ATOMS IN THE ASYMMETRIC UNIT    5 - ATOMS IN THE UNIT CELL:    8
     ATOM             X(ANGSTROM)         Y(ANGSTROM)         Z(ANGSTROM)
 *******************************************************************************
      1 T   6 C     0.000000000000E+00  0.000000000000E+00  4.221735629410E-02
      2 T   8 O     0.000000000000E+00  0.000000000000E+00  1.259701956475E+00
      3 T   7 N     0.000000000000E+00  1.155851051230E+00 -7.098523234040E-01
      4 F   7 N     0.000000000000E+00 -1.155851051230E+00 -7.098523234040E-01
      5 T   1 H     0.000000000000E+00  2.024448989086E+00 -2.015401989397E-01
      6 F   1 H     0.000000000000E+00 -2.024448989086E+00 -2.015401989397E-01
      7 T   1 H     0.000000000000E+00  1.178200786464E+00 -1.716448634041E+00
      8 F   1 H     0.000000000000E+00 -1.178200786464E+00 -1.716448634041E+00

 T = ATOM BELONGING TO THE ASYMMETRIC UNIT

 ****    4 SYMMOPS - TRANSLATORS IN FRACTIONAL UNITS
 **** MATRICES AND TRANSLATORS IN THE CRYSTALLOGRAPHIC REFERENCE FRAME
   V INV                    ROTATION MATRICES                   TRANSLATORS
   1   1  1.00  0.00  0.00  0.00  1.00  0.00  0.00  0.00  1.00  0.00  0.00  0.00
   2   2 -1.00  0.00  0.00  0.00 -1.00  0.00  0.00  0.00  1.00  0.00  0.00  0.00
   3   3 -1.00  0.00  0.00  0.00  1.00  0.00  0.00  0.00  1.00  0.00  0.00  0.00
   4   4  1.00  0.00  0.00  0.00 -1.00  0.00  0.00  0.00  1.00  0.00  0.00  0.00

 *******************************************************************************
 LOCAL ATOMIC FUNCTIONS BASIS SET
 *******************************************************************************
   ATOM   X(AU)   Y(AU)   Z(AU)  N. TYPE  EXPONENT  S COEF   P COEF   D/F/G COEF
 *******************************************************************************
   1 C    0.000   0.000   0.080
                                  1 S  
                                         3.048E+03 1.826E-03 0.000E+00 0.000E+00
                                         4.564E+02 1.406E-02 0.000E+00 0.000E+00
                                         1.037E+02 6.876E-02 0.000E+00 0.000E+00
                                         2.923E+01 2.304E-01 0.000E+00 0.000E+00
                                         9.349E+00 4.685E-01 0.000E+00 0.000E+00
                                         3.189E+00 3.628E-01 0.000E+00 0.000E+00
                           2-     5 SP 
                                         3.665E+00-3.959E-01 2.365E-01 0.000E+00
                                         7.705E-01 1.216E+00 8.606E-01 0.000E+00
                           6-     9 SP 
                                         1.959E-01 1.000E+00 1.000E+00 0.000E+00
                          10-    14 D  
                                         8.000E-01 0.000E+00 0.000E+00 1.000E+00
   2 O    0.000   0.000   2.380
                                 15 S  
                                         5.472E+03 1.832E-03 0.000E+00 0.000E+00
                                         8.178E+02 1.410E-02 0.000E+00 0.000E+00
                                         1.864E+02 6.863E-02 0.000E+00 0.000E+00
                                         5.302E+01 2.294E-01 0.000E+00 0.000E+00
                                         1.718E+01 4.664E-01 0.000E+00 0.000E+00
                                         5.912E+00 3.642E-01 0.000E+00 0.000E+00
                          16-    19 SP 
                                         7.403E+00-4.045E-01 2.446E-01 0.000E+00
                                         1.576E+00 1.222E+00 8.540E-01 0.000E+00
                          20-    23 SP 
                                         3.737E-01 1.000E+00 1.000E+00 0.000E+00
                          24-    28 D  
                                         8.000E-01 0.000E+00 0.000E+00 1.000E+00
   3 N    0.000   2.184  -1.341
                                 29 S  
                                         4.150E+03 1.845E-03 0.000E+00 0.000E+00
                                         6.201E+02 1.416E-02 0.000E+00 0.000E+00
                                         1.417E+02 6.863E-02 0.000E+00 0.000E+00
                                         4.034E+01 2.286E-01 0.000E+00 0.000E+00
                                         1.303E+01 4.662E-01 0.000E+00 0.000E+00
                                         4.470E+00 3.657E-01 0.000E+00 0.000E+00
                          30-    33 SP 
                                         5.425E+00-4.133E-01 2.380E-01 0.000E+00
                                         1.149E+00 1.224E+00 8.590E-01 0.000E+00
                          34-    37 SP 
                                         2.832E-01 1.000E+00 1.000E+00 0.000E+00
                          38-    42 D  
                                         8.000E-01 0.000E+00 0.000E+00 1.000E+00
   4 N    0.000  -2.184  -1.341
   5 H    0.000   3.826  -0.381
                                 57 S  
                                         5.447E+00 1.563E-01 0.000E+00 0.000E+00
                                         8.245E-01 9.047E-01 0.000E+00 0.000E+00
                                 58 S  
                                         1.832E-01 1.000E+00 0.000E+00 0.000E+00
                          59-    61 P  
                                         1.100E+00 0.000E+00 1.000E+00 0.000E+00
   6 H    0.000  -3.826  -0.381
   7 H    0.000   2.226  -3.244
   8 H    0.000  -2.226  -3.244
 INFORMATION **** SET_MPP **** PCRYSTAL CALCULATION
 INFORMATION **** READM2 **** NEW DEFAULT: FOCK/KS MATRIX MIXING SET TO 30 %
 INFORMATION **** READM2 **** NEW DEFAULT: FULL DIRECT SCF MODE
 INFORMATION **** READM2 **** NEW DEFAULT: COULOMB BIPOLAR BUFFER SET TO 32 Mb
 INFORMATION **** READM2 **** NEW DEFAULT: EXCHANGE BIPOLAR BUFFER SET TO 32 Mb

 *******************************************************************************
 NEW DEFAULT: DFT INTEGRATION GRID INCREASED TO XLGRID
 NEW DEFAULT: DIIS ACCELERATOR ACTIVE
 USE KEYWORD NODIIS TO TURN IT OFF
 *******************************************************************************

 INFORMATION **** PPAN ****  MULLIKEN POPULATION ANALYSIS AT THE END OF SCF
 *******************************************************************************
 N. OF ATOMS PER CELL         8  COULOMB OVERLAP TOL         (T1) 10**   -6
 NUMBER OF SHELLS            28  COULOMB PENETRATION TOL     (T2) 10**   -6
 NUMBER OF AO                76  EXCHANGE OVERLAP TOL        (T3) 10**   -6
 N. OF ELECTRONS PER CELL    32  EXCHANGE PSEUDO OVP (F(G))  (T4) 10**   -6
 CORE ELECTRONS PER CELL      8  EXCHANGE PSEUDO OVP (P(G))  (T5) 10**  -12
 N. OF SYMMETRY OPERATORS     4  POLE ORDER IN MONO ZONE                  4
 *******************************************************************************
 TYPE OF CALCULATION :  RESTRICTED CLOSED SHELL
 KOHN-SHAM HAMILTONIAN

 (EXCHANGE)[CORRELATION] FUNCTIONAL:(BECKE 88)[LEE-YANG-PARR]

 NON-LOCAL WEIGHTING FACTOR (EXCHANGE) =           0.9000
 NON-LOCAL WEIGHTING FACTOR [CORRELATION] =        0.8100

 HYBRID EXCHANGE - PERCENTAGE OF FOCK EXCHANGE    20.0000

 CAPPA:IS1  1;IS2  1;IS3  1; K PTS MONK NET   1; SYMMOPS:K SPACE   8;G SPACE   4

 *******************************************************************************
 MAX NUMBER OF SCF CYCLES      50  CONVERGENCE ON DELTAP        10**-16
 WEIGHT OF F(I) IN F(I+1)      30% CONVERGENCE ON ENERGY        10**- 7

 DISK SPACE FOR EIGENVECTORS (FTN 10)        5776 REALS

 SYMMETRY ADAPTION OF THE BLOCH FUNCTIONS ENABLED
 TTTTTTTTTTTTTTTTTTTTTTTTTTTTTT gordsh1     TELAPSE        0.01 TCPU        0.01

 MATRIX SIZE: P(G)    5728, F(G)    2651, P(G) IRR    1761, F(G) IRR    1635
 MAX G-VECTOR INDEX FOR 1- AND 2-ELECTRON INTEGRALS   1

 TTTTTTTTTTTTTTTTTTTTTTTTTTTTTT INPUT       TELAPSE        0.01 TCPU        0.01

 NEIGHBORS OF THE NON-EQUIVALENT ATOMS

 N = NUMBER OF NEIGHBORS AT DISTANCE R
    ATOM  N     R/ANG      R/AU   NEIGHBORS (ATOM LABELS AND CELL INDICES)
   1 C    1     1.2175     2.3007    2 O    0 0 0
   1 C    2     1.3790     2.6059    3 N    0 0 0    4 N    0 0 0
   1 C    2     2.0391     3.8533    5 H    0 0 0    6 H    0 0 0
   1 C    2     2.1169     4.0003    7 H    0 0 0    8 H    0 0 0

   2 O    1     1.2175     2.3007    1 C    0 0 0
   2 O    2     2.2837     4.3155    3 N    0 0 0    4 N    0 0 0
   2 O    2     2.4967     4.7181    5 H    0 0 0    6 H    0 0 0
   2 O    2     3.2009     6.0488    7 H    0 0 0    8 H    0 0 0

   3 N    1     1.0064     1.9018    5 H    0 0 0
   3 N    1     1.0068     1.9027    7 H    0 0 0
   3 N    1     1.3790     2.6059    1 C    0 0 0
   3 N    1     2.2837     4.3155    2 O    0 0 0
   3 N    1     2.3117     4.3685    4 N    0 0 0
   3 N    1     2.5419     4.8034    8 H    0 0 0

   5 H    1     1.0064     1.9018    3 N    0 0 0
   5 H    1     1.7352     3.2791    7 H    0 0 0
   5 H    1     2.0391     3.8533    1 C    0 0 0
   5 H    1     2.4967     4.7181    2 O    0 0 0
   5 H    1     3.2207     6.0862    4 N    0 0 0
   5 H    1     3.5429     6.6951    8 H    0 0 0

   7 H    1     1.0068     1.9027    3 N    0 0 0
   7 H    1     1.7352     3.2791    5 H    0 0 0
   7 H    1     2.1169     4.0003    1 C    0 0 0
   7 H    1     2.3564     4.4530    8 H    0 0 0
   7 H    1     2.5419     4.8034    4 N    0 0 0
   7 H    1     3.2009     6.0488    2 O    0 0 0


 SYMMETRY ALLOWED INTERNAL DEGREE(S) OF FREEDOM:   7
 TTTTTTTTTTTTTTTTTTTTTTTTTTTTTT SYMM        TELAPSE        0.01 TCPU        0.01
 TTTTTTTTTTTTTTTTTTTTTTTTTTTTTT INT_SCREEN  TELAPSE        0.01 TCPU        0.01

 *******************************************************************************
 *                             OPTIMIZATION STARTS                             *
 *******************************************************************************
 RECLASIFICATION OF INDICES FOR INTEGRAL CALC ACCORDING TO DIFFERENT CRITERIA:
           FIXDELTE                  FIXDELTX              FIXDELTN
          0.10000000               0.80000000                 10
 DEFAULT MAX NUM OF POINTS  100
 *******************************************************************************

 *******************************************************************************
 COORDINATE OPTIMIZATION - POINT    1
 INFORMATION **** EXCBUF **** EXCH. BIPO BUFFER: WORDS USED =       53874

 DFT PARAMETERS

     ATOM       ELECTRONS   NET CHARGE   R(ANGSTROM)
   1   6  C       6.0000      0.0000     0.77000000
   2   8  O       8.0000      0.0000     0.74000000
   3   7  N       7.0000      0.0000     0.74000000
   5   1  H       1.0000      0.0000     1.11000000

 SIZE OF GRID=      71109
 TTTTTTTTTTTTTTTTTTTTTTTTTTTTTT MAKE_GRID2  TELAPSE        0.11 TCPU        0.10
 BECKE WEIGHT FUNCTION
 RADSAFE =     2.00
 TOLERANCES - DENSITY:10**- 6; POTENTIAL:10**- 9; GRID WGT:10**-14

 RADIAL INTEGRATION  - INTERVALS (POINTS,UPPER LIMIT):            1( 75,  4.0*R)

 ANGULAR INTEGRATION - INTERVALS (ACCURACY LEVEL [N. POINTS] UPPER LIMIT):
  1(  4[  86]   0.2)  2(  8[ 194]   0.5)  3( 12[ 350]   0.9)  4( 16[ 974]   3.5)
  5( 12[ 350]9999.0)
 TTTTTTTTTTTTTTTTTTTTTTTTTTTTTT INT_CALC    TELAPSE        0.11 TCPU        0.10

 *******************************************************************************
 UREA MOLECULE BASE 6-21 + POLARIZATION                                          
 CRYSTAL - SCF - TYPE OF CALCULATION :  RESTRICTED CLOSED SHELL
 *******************************************************************************

 CAPPA:IS1  1;IS2  1;IS3  1; K PTS MONK NET   1; SYMMOPS:K SPACE   8;G SPACE   4

 TTTTTTTTTTTTTTTTTTTTTTTTTTTTTT SDIK        TELAPSE        0.11 TCPU        0.10

 AAAAAAAAAAAAAAAAAAAAAAAAAAAAAAAAAAAAAAAAAAAAAAAAAAAAAAAAAAAAAAAAAAAAAAAAAAAAAAA
         ATOMIC WAVEFUNCTION(S)


 NUCLEAR CHARGE  6.0  SYMMETRY SPECIES            S    P
 N. ELECTRONS    6.0  NUMBER OF PRIMITIVE GTOS    9    3
                      NUMBER OF CONTRACTED GTOS   3    2
                      NUMBER OF CLOSED SHELLS     2    0
                      OPEN SHELL OCCUPATION       0    2

  ZNUC SCFIT  TOTAL HF ENERGY   KINETIC ENERGY   VIRIAL THEOREM ACCURACY
   6.0   9   -3.765831823E+01  3.765320062E+01 -2.000135914E+00  1.5E-06

 NUCLEAR CHARGE  8.0  SYMMETRY SPECIES            S    P
 N. ELECTRONS    8.0  NUMBER OF PRIMITIVE GTOS    9    3
                      NUMBER OF CONTRACTED GTOS   3    2
                      NUMBER OF CLOSED SHELLS     2    0
                      OPEN SHELL OCCUPATION       0    4

  ZNUC SCFIT  TOTAL HF ENERGY   KINETIC ENERGY   VIRIAL THEOREM ACCURACY
   8.0  10   -7.469910437E+01  7.469021188E+01 -2.000119058E+00  4.4E-06

 NUCLEAR CHARGE  7.0  SYMMETRY SPECIES            S    P
 N. ELECTRONS    7.0  NUMBER OF PRIMITIVE GTOS    9    3
                      NUMBER OF CONTRACTED GTOS   3    2
                      NUMBER OF CLOSED SHELLS     2    0
                      OPEN SHELL OCCUPATION       0    3

  ZNUC SCFIT  TOTAL HF ENERGY   KINETIC ENERGY   VIRIAL THEOREM ACCURACY
   7.0   8   -5.434075198E+01  5.432977783E+01 -2.000201992E+00  3.0E-06

 NUCLEAR CHARGE  1.0  SYMMETRY SPECIES            S
 N. ELECTRONS    1.0  NUMBER OF PRIMITIVE GTOS    3
                      NUMBER OF CONTRACTED GTOS   2
                      NUMBER OF CLOSED SHELLS     0
                      OPEN SHELL OCCUPATION       1

  ZNUC SCFIT  TOTAL HF ENERGY   KINETIC ENERGY   VIRIAL THEOREM ACCURACY
   1.0   1   -4.961986360E-01  5.144743151E-01 -1.964476984E+00  0.0E+00

 AAAAAAAAAAAAAAAAAAAAAAAAAAAAAAAAAAAAAAAAAAAAAAAAAAAAAAAAAAAAAAAAAAAAAAAAAAAAAAA

 CHARGE NORMALIZATION FACTOR   1.00000000
 TOTAL ATOMIC CHARGES:
   6.0000000   8.0000000   7.0000000   7.0000000   1.0000000   1.0000000
   1.0000000   1.0000000
 TTTTTTTTTTTTTTTTTTTTTTTTTTTTTT MOQGAD      TELAPSE        0.11 TCPU        0.10
 TTTTTTTTTTTTTTTTTTTTTTTTTTTTTT SHELLXN     TELAPSE        0.48 TCPU        0.47
 TTTTTTTTTTTTTTTTTTTTTTTTTTTTTT MONMO3      TELAPSE        0.48 TCPU        0.47
 NUMERICALLY INTEGRATED DENSITY     31.9999938025
 TTTTTTTTTTTTTTTTTTTTTTTTTTTTTT NUMDFT      TELAPSE        0.73 TCPU        0.72
 CYC   0 ETOT(AU) -2.257185053464E+02 DETOT -2.26E+02 tst  0.00E+00 PX  1.00E+00
 TTTTTTTTTTTTTTTTTTTTTTTTTTTTTT DIIS        TELAPSE        0.73 TCPU        0.72
 TTTTTTTTTTTTTTTTTTTTTTTTTTTTTT FDIK        TELAPSE        0.89 TCPU        0.73
 INSULATING STATE
 TOP OF VALENCE BANDS -    BAND     16; K    1; EIG -3.0575196E-01 AU
 BOTTOM OF VIRTUAL BANDS - BAND     17; K    1; EIG -2.1801981E-03 AU
 DIRECT ENERGY BAND GAP:   8.2606 eV
 TTTTTTTTTTTTTTTTTTTTTTTTTTTTTT PDIG        TELAPSE        0.89 TCPU        0.73
 CHARGE NORMALIZATION FACTOR   1.00000000
 TOTAL ATOMIC CHARGES:
   4.7023197   8.9600200   7.8268691   7.8268691   0.6740323   0.6740323
   0.6679288   0.6679288
 TTTTTTTTTTTTTTTTTTTTTTTTTTTTTT MOQGAD      TELAPSE        0.90 TCPU        0.73
 TTTTTTTTTTTTTTTTTTTTTTTTTTTTTT SHELLXN     TELAPSE        1.27 TCPU        1.11
 TTTTTTTTTTTTTTTTTTTTTTTTTTTTTT MONMO3      TELAPSE        1.28 TCPU        1.11
 NUMERICALLY INTEGRATED DENSITY     31.9999983732
 TTTTTTTTTTTTTTTTTTTTTTTTTTTTTT NUMDFT      TELAPSE        1.59 TCPU        1.43
 CYC   1 ETOT(AU) -2.248038222756E+02 DETOT  9.15E-01 tst  0.00E+00 PX  1.00E+00
 TTTTTTTTTTTTTTTTTTTTTTTTTTTTTT DIIS        TELAPSE        1.59 TCPU        1.43
 DIIS TEST: 0.56534E+00 AT SCF   CYCLE   1 - MIX   30 %
 TTTTTTTTTTTTTTTTTTTTTTTTTTTTTT FDIK        TELAPSE        1.59 TCPU        1.43
 INSULATING STATE
 TOP OF VALENCE BANDS -    BAND     16; K    1; EIG -1.4432294E-01 AU
 BOTTOM OF VIRTUAL BANDS - BAND     17; K    1; EIG  8.7735486E-02 AU
 DIRECT ENERGY BAND GAP:   6.3146 eV
 TTTTTTTTTTTTTTTTTTTTTTTTTTTTTT PDIG        TELAPSE        1.60 TCPU        1.43
 CHARGE NORMALIZATION FACTOR   1.00000000
 TOTAL ATOMIC CHARGES:
   5.5431954   8.1505238   7.4926809   7.4926809   0.8105965   0.8105965
   0.8498630   0.8498630
 TTTTTTTTTTTTTTTTTTTTTTTTTTTTTT MOQGAD      TELAPSE        1.60 TCPU        1.43
 TTTTTTTTTTTTTTTTTTTTTTTTTTTTTT SHELLXN     TELAPSE        1.98 TCPU        1.81
 TTTTTTTTTTTTTTTTTTTTTTTTTTTTTT MONMO3      TELAPSE        1.98 TCPU        1.81
 NUMERICALLY INTEGRATED DENSITY     31.9999963417
 TTTTTTTTTTTTTTTTTTTTTTTTTTTTTT NUMDFT      TELAPSE        2.29 TCPU        2.13
 CYC   2 ETOT(AU) -2.248563972704E+02 DETOT -5.26E-02 tst  1.14E-02 PX  2.02E-01
 TTTTTTTTTTTTTTTTTTTTTTTTTTTTTT DIIS        TELAPSE        2.29 TCPU        2.13
 DIIS TEST: 0.35421E+00 AT SCF   CYCLE   2 - DIIS ACTIVE - HISTORY:     2 CYCLES
 TTTTTTTTTTTTTTTTTTTTTTTTTTTTTT FDIK        TELAPSE        2.29 TCPU        2.13
 INSULATING STATE
 TOP OF VALENCE BANDS -    BAND     16; K    1; EIG -2.0555576E-01 AU
 BOTTOM OF VIRTUAL BANDS - BAND     17; K    1; EIG  1.0453664E-01 AU
 DIRECT ENERGY BAND GAP:   8.4380 eV
 TTTTTTTTTTTTTTTTTTTTTTTTTTTTTT PDIG        TELAPSE        2.29 TCPU        2.13
 CHARGE NORMALIZATION FACTOR   1.00000000
 TOTAL ATOMIC CHARGES:
   5.0572203   8.6858980   7.4656575   7.4656575   0.8203444   0.8203444
   0.8424390   0.8424390
 TTTTTTTTTTTTTTTTTTTTTTTTTTTTTT MOQGAD      TELAPSE        2.30 TCPU        2.13
 TTTTTTTTTTTTTTTTTTTTTTTTTTTTTT SHELLXN     TELAPSE        2.67 TCPU        2.50
 TTTTTTTTTTTTTTTTTTTTTTTTTTTTTT MONMO3      TELAPSE        2.67 TCPU        2.51
 NUMERICALLY INTEGRATED DENSITY     31.9999973100
 TTTTTTTTTTTTTTTTTTTTTTTTTTTTTT NUMDFT      TELAPSE        2.98 TCPU        2.82
 CYC   3 ETOT(AU) -2.249173970603E+02 DETOT -6.10E-02 tst  5.74E-03 PX  1.18E-01
 TTTTTTTTTTTTTTTTTTTTTTTTTTTTTT DIIS        TELAPSE        2.98 TCPU        2.82
 DIIS TEST: 0.63160E-01 AT SCF   CYCLE   3 - DIIS ACTIVE - HISTORY:     3 CYCLES
 TTTTTTTTTTTTTTTTTTTTTTTTTTTTTT FDIK        TELAPSE        2.98 TCPU        2.82
 INSULATING STATE
 TOP OF VALENCE BANDS -    BAND     16; K    1; EIG -2.1522721E-01 AU
 BOTTOM OF VIRTUAL BANDS - BAND     17; K    1; EIG  9.3493789E-02 AU
 DIRECT ENERGY BAND GAP:   8.4007 eV
 TTTTTTTTTTTTTTTTTTTTTTTTTTTTTT PDIG        TELAPSE        2.98 TCPU        2.82
 CHARGE NORMALIZATION FACTOR   1.00000000
 TOTAL ATOMIC CHARGES:
   5.1109320   8.5437752   7.5762838   7.5762838   0.7853977   0.7853977
   0.8109649   0.8109649
 TTTTTTTTTTTTTTTTTTTTTTTTTTTTTT MOQGAD      TELAPSE        2.99 TCPU        2.82
 TTTTTTTTTTTTTTTTTTTTTTTTTTTTTT SHELLXN     TELAPSE        3.42 TCPU        3.25
 TTTTTTTTTTTTTTTTTTTTTTTTTTTTTT MONMO3      TELAPSE        3.42 TCPU        3.26
 NUMERICALLY INTEGRATED DENSITY     31.9999972470
 TTTTTTTTTTTTTTTTTTTTTTTTTTTTTT NUMDFT      TELAPSE        3.74 TCPU        3.57
 CYC   4 ETOT(AU) -2.249298872769E+02 DETOT -1.25E-02 tst  6.46E-04 PX  3.98E-02
 TTTTTTTTTTTTTTTTTTTTTTTTTTTTTT DIIS        TELAPSE        3.74 TCPU        3.57
 DIIS TEST: 0.97769E-03 AT SCF   CYCLE   4 - DIIS ACTIVE - HISTORY:     4 CYCLES
 TTTTTTTTTTTTTTTTTTTTTTTTTTTTTT FDIK        TELAPSE        3.74 TCPU        3.57
 INSULATING STATE
 TOP OF VALENCE BANDS -    BAND     16; K    1; EIG -2.2228194E-01 AU
 BOTTOM OF VIRTUAL BANDS - BAND     17; K    1; EIG  9.5362521E-02 AU
 DIRECT ENERGY BAND GAP:   8.6435 eV
 TTTTTTTTTTTTTTTTTTTTTTTTTTTTTT PDIG        TELAPSE        3.74 TCPU        3.57
 CHARGE NORMALIZATION FACTOR   1.00000000
 TOTAL ATOMIC CHARGES:
   5.1240425   8.5611266   7.5595671   7.5595671   0.7871720   0.7871720
   0.8106764   0.8106764
 TTTTTTTTTTTTTTTTTTTTTTTTTTTTTT MOQGAD      TELAPSE        3.74 TCPU        3.58
 TTTTTTTTTTTTTTTTTTTTTTTTTTTTTT SHELLXN     TELAPSE        4.19 TCPU        4.03
 TTTTTTTTTTTTTTTTTTTTTTTTTTTTTT MONMO3      TELAPSE        4.20 TCPU        4.03
 NUMERICALLY INTEGRATED DENSITY     31.9999972627
 TTTTTTTTTTTTTTTTTTTTTTTTTTTTTT NUMDFT      TELAPSE        4.64 TCPU        4.47
 CYC   5 ETOT(AU) -2.249300870507E+02 DETOT -2.00E-04 tst  1.83E-05 PX  8.61E-03
 TTTTTTTTTTTTTTTTTTTTTTTTTTTTTT DIIS        TELAPSE        4.64 TCPU        4.47
 DIIS TEST: 0.13799E-03 AT SCF   CYCLE   5 - DIIS ACTIVE - HISTORY:     5 CYCLES
 TTTTTTTTTTTTTTTTTTTTTTTTTTTTTT FDIK        TELAPSE        4.64 TCPU        4.47
 INSULATING STATE
 TOP OF VALENCE BANDS -    BAND     16; K    1; EIG -2.2035482E-01 AU
 BOTTOM OF VIRTUAL BANDS - BAND     17; K    1; EIG  9.5282907E-02 AU
 DIRECT ENERGY BAND GAP:   8.5889 eV
 TTTTTTTTTTTTTTTTTTTTTTTTTTTTTT PDIG        TELAPSE        4.64 TCPU        4.47
 CHARGE NORMALIZATION FACTOR   1.00000000
 TOTAL ATOMIC CHARGES:
   5.1188669   8.5581367   7.5623462   7.5623462   0.7875856   0.7875856
   0.8115663   0.8115663
 TTTTTTTTTTTTTTTTTTTTTTTTTTTTTT MOQGAD      TELAPSE        4.64 TCPU        4.48
 TTTTTTTTTTTTTTTTTTTTTTTTTTTTTT SHELLXN     TELAPSE        5.08 TCPU        4.91
 TTTTTTTTTTTTTTTTTTTTTTTTTTTTTT MONMO3      TELAPSE        5.08 TCPU        4.92
 NUMERICALLY INTEGRATED DENSITY     31.9999972570
 TTTTTTTTTTTTTTTTTTTTTTTTTTTTTT NUMDFT      TELAPSE        5.40 TCPU        5.23
 CYC   6 ETOT(AU) -2.249301171377E+02 DETOT -3.01E-05 tst  1.28E-06 PX  1.43E-03
 TTTTTTTTTTTTTTTTTTTTTTTTTTTTTT DIIS        TELAPSE        5.40 TCPU        5.24
 DIIS TEST: 0.47893E-06 AT SCF   CYCLE   6 - DIIS ACTIVE - HISTORY:     6 CYCLES
 TTTTTTTTTTTTTTTTTTTTTTTTTTTTTT FDIK        TELAPSE        5.41 TCPU        5.24
 INSULATING STATE
 TOP OF VALENCE BANDS -    BAND     16; K    1; EIG -2.2044981E-01 AU
 BOTTOM OF VIRTUAL BANDS - BAND     17; K    1; EIG  9.5244265E-02 AU
 DIRECT ENERGY BAND GAP:   8.5905 eV
 TTTTTTTTTTTTTTTTTTTTTTTTTTTTTT PDIG        TELAPSE        5.41 TCPU        5.24
 CHARGE NORMALIZATION FACTOR   1.00000000
 TOTAL ATOMIC CHARGES:
   5.1184894   8.5583598   7.5623923   7.5623923   0.7875714   0.7875714
   0.8116117   0.8116117
 TTTTTTTTTTTTTTTTTTTTTTTTTTTTTT MOQGAD      TELAPSE        5.41 TCPU        5.24
 TTTTTTTTTTTTTTTTTTTTTTTTTTTTTT SHELLXN     TELAPSE        5.81 TCPU        5.64
 TTTTTTTTTTTTTTTTTTTTTTTTTTTTTT MONMO3      TELAPSE        5.81 TCPU        5.64
 NUMERICALLY INTEGRATED DENSITY     31.9999972571
 TTTTTTTTTTTTTTTTTTTTTTTTTTTTTT NUMDFT      TELAPSE        6.20 TCPU        6.03
 CYC   7 ETOT(AU) -2.249301172471E+02 DETOT -1.09E-07 tst  3.14E-09 PX  1.21E-04
 TTTTTTTTTTTTTTTTTTTTTTTTTTTTTT DIIS        TELAPSE        6.21 TCPU        6.03
 DIIS TEST: 0.11838E-07 AT SCF   CYCLE   7 - DIIS ACTIVE - HISTORY:     7 CYCLES
 TTTTTTTTTTTTTTTTTTTTTTTTTTTTTT FDIK        TELAPSE        6.21 TCPU        6.03
 INSULATING STATE
 TOP OF VALENCE BANDS -    BAND     16; K    1; EIG -2.2045552E-01 AU
 BOTTOM OF VIRTUAL BANDS - BAND     17; K    1; EIG  9.5253240E-02 AU
 DIRECT ENERGY BAND GAP:   8.5909 eV
 TTTTTTTTTTTTTTTTTTTTTTTTTTTTTT PDIG        TELAPSE        6.21 TCPU        6.03
 CHARGE NORMALIZATION FACTOR   1.00000000
 TOTAL ATOMIC CHARGES:
   5.1184894   8.5583686   7.5623806   7.5623806   0.7875892   0.7875892
   0.8116012   0.8116012
 TTTTTTTTTTTTTTTTTTTTTTTTTTTTTT MOQGAD      TELAPSE        6.21 TCPU        6.04
 TTTTTTTTTTTTTTTTTTTTTTTTTTTTTT SHELLXN     TELAPSE        6.59 TCPU        6.41
 TTTTTTTTTTTTTTTTTTTTTTTTTTTTTT MONMO3      TELAPSE        6.59 TCPU        6.41
 NUMERICALLY INTEGRATED DENSITY     31.9999972571
 TTTTTTTTTTTTTTTTTTTTTTTTTTTTTT NUMDFT      TELAPSE        7.01 TCPU        6.83
 CYC   8 ETOT(AU) -2.249301172513E+02 DETOT -4.20E-09 tst  8.80E-11 PX  2.88E-05
 TTTTTTTTTTTTTTTTTTTTTTTTTTTTTT DIIS        TELAPSE        7.01 TCPU        6.83
 DIIS TEST: 0.11255E-08 AT SCF   CYCLE   8 - DIIS ACTIVE - HISTORY:     8 CYCLES
 TTTTTTTTTTTTTTTTTTTTTTTTTTTTTT FDIK        TELAPSE        7.01 TCPU        6.83
 INSULATING STATE
 TOP OF VALENCE BANDS -    BAND     16; K    1; EIG -2.2045889E-01 AU
 BOTTOM OF VIRTUAL BANDS - BAND     17; K    1; EIG  9.5252335E-02 AU
 DIRECT ENERGY BAND GAP:   8.5909 eV
 TTTTTTTTTTTTTTTTTTTTTTTTTTTTTT PDIG        TELAPSE        7.01 TCPU        6.83
 CHARGE NORMALIZATION FACTOR   1.00000000
 TOTAL ATOMIC CHARGES:
   5.1184953   8.5583776   7.5623731   7.5623731   0.7875875   0.7875875
   0.8116030   0.8116030
 TTTTTTTTTTTTTTTTTTTTTTTTTTTTTT MOQGAD      TELAPSE        7.01 TCPU        6.84
 TTTTTTTTTTTTTTTTTTTTTTTTTTTTTT SHELLXN     TELAPSE        7.44 TCPU        7.26

 ::: DIPOLE MOMENT ALONG NON PERIODIC DIRECTIONS:
 ::: A.U.     (X)  0.00000E+00   (Y)  0.00000E+00   (Z)  1.50214E+00
 ::: DEBYE         0.00000E+00        0.00000E+00       -3.81805E+00

 +++ ENERGIES IN A.U. +++
 ::: EXT EL-POLE                                   1.1362521569925E+01
 ::: EXT EL-SPHEROPOLE                             0.0000000000000E+00
 ::: BIELET ZONE E-E                               2.1526138787393E+02
 ::: TOTAL E-E                                     2.2662390944385E+02
 ::: TOTAL E-N + N-E                              -7.7524270624821E+02
 ::: TOTAL N-N                                     1.2361586231524E+02
 ::: KINETIC ENERGY                                2.2374664313086E+02
 ::: PSEUDO TOTAL   ENERGY                        -2.0125629135826E+02
 ::: VIRIAL COEFFICIENT                            1.0529181093764E+00
 TTTTTTTTTTTTTTTTTTTTTTTTTTTTTT MONMO3      TELAPSE        7.44 TCPU        7.26
 NUMERICALLY INTEGRATED DENSITY     31.9999972571
 TTTTTTTTTTTTTTTTTTTTTTTTTTTTTT NUMDFT      TELAPSE        7.76 TCPU        7.58
 CYC   9 ETOT(AU) -2.249301172520E+02 DETOT -7.01E-10 tst  9.25E-12 PX  2.88E-05

 == SCF ENDED - CONVERGENCE ON ENERGY      E(AU) -2.2493011725201E+02 CYCLES   9


 ENERGY EXPRESSION=HARTREE+FOCK EXCH*0.20000+(BECKE      EXCH)*0.80000+LYP        CORR


 TOTAL ENERGY(DFT)(AU)(  9) -2.2493011725201E+02 DE-7.0E-10 tester 9.3E-12
 TTTTTTTTTTTTTTTTTTTTTTTTTTTTTT EDFT        TELAPSE        7.76 TCPU        7.58

 *******************************************************************************
 *                             FORCE CALCULATION                               *
 *******************************************************************************

 TTTTTTTTTTTTTTTTTTTTTTTTTTTTTT NUMDFG      TELAPSE        9.12 TCPU        8.95
 INFORMATION **** EXCPOG **** EXCH. BIPO BUFFER LENGTH (WORDS) =      215496
 INFORMATION **** GENPOG **** BIPO BUFFER LENGTH (WORDS) =       35100
 TTTTTTTTTTTTTTTTTTTTTTTTTTTTTT SHELXG      TELAPSE       12.04 TCPU       11.86

 CARTESIAN FORCES IN HARTREE/BOHR (ANALYTICAL)
   ATOM                     X                   Y                   Z
   1   6             0.000000000000E+00  0.000000000000E+00  1.006294579398E-05
   2   8             0.000000000000E+00  0.000000000000E+00  1.354786432728E-05
   3   7             0.000000000000E+00 -4.192243241974E-05  2.950582104866E-06
   4   7            -1.170938346284E-17  4.192243242152E-05  2.950582104866E-06
   5   1             0.000000000000E+00  6.446891881673E-06 -1.188123123141E-05
   6   1            -4.580754178751E-18 -6.446891882117E-06 -1.188123123130E-05
   7   1             0.000000000000E+00  3.525022854167E-06 -2.874754971849E-06
   8   1            -1.843143693225E-18 -3.525022854167E-06 -2.874754971849E-06

 RESULTANT FORCE    -1.813328133482E-17  1.332267629550E-15  1.924571613188E-12

 SYMMETRY ALLOWED FORCES (ANALYTICAL) (DIRECTION, FORCE)

    1  1.0757741E-05    2  1.6186112E-05    3 -5.9287272E-05    4  1.1926411E-05
    5  9.1172819E-06    6 -9.0064763E-06    7  4.9851351E-06
 TTTTTTTTTTTTTTTTTTTTTTTTTTTTTT TOTGRA      TELAPSE       12.06 TCPU       11.88
 INFORMATION **** opta001 **** GEOMETRY OUTPUT FILE
 CLASSICAL MODEL (SCHLEGEL) USED AS INITIAL HESSIAN MATRIX
 REFERENCE GEOMETRY DEFINED

 MAX GRADIENT      0.000059  THRESHOLD              0.000450 CONVERGED YES
 RMS GRADIENT      0.000025  THRESHOLD              0.000300 CONVERGED YES

 WARNINGWARNINGWARNINGWARNINGWARNINGWARNINGWARNINGWARNINGWARNINGWARNINGWARNING

 CONVERGENCE ON GRADIENTS SATISFIED AFTER THE FIRST OPTIMIZATION CYCLE
 GEOMETRY OPTIMIZATION STOPPED

 WARNINGWARNINGWARNINGWARNINGWARNINGWARNINGWARNINGWARNINGWARNINGWARNINGWARNING


 ******************************************************************
 * OPT END - CONVERGED * E(AU):  -2.249301172520E+02  POINTS    1 *
 ******************************************************************

   BAND GAP:                      8.5909  eV 


 NEIGHBORS OF THE NON-EQUIVALENT ATOMS

 N = NUMBER OF NEIGHBORS AT DISTANCE R
    ATOM  N     R/ANG      R/AU   NEIGHBORS (ATOM LABELS AND CELL INDICES)
   1 C    1     1.2175     2.3007    2 O    0 0 0
   1 C    2     1.3790     2.6059    3 N    0 0 0    4 N    0 0 0
   1 C    2     2.0391     3.8533    5 H    0 0 0    6 H    0 0 0
   1 C    2     2.1169     4.0003    7 H    0 0 0    8 H    0 0 0

   2 O    1     1.2175     2.3007    1 C    0 0 0
   2 O    2     2.2837     4.3155    3 N    0 0 0    4 N    0 0 0
   2 O    2     2.4967     4.7181    5 H    0 0 0    6 H    0 0 0
   2 O    2     3.2009     6.0488    7 H    0 0 0    8 H    0 0 0

   3 N    1     1.0064     1.9018    5 H    0 0 0
   3 N    1     1.0068     1.9027    7 H    0 0 0
   3 N    1     1.3790     2.6059    1 C    0 0 0
   3 N    1     2.2837     4.3155    2 O    0 0 0
   3 N    1     2.3117     4.3685    4 N    0 0 0
   3 N    1     2.5419     4.8034    8 H    0 0 0

   5 H    1     1.0064     1.9018    3 N    0 0 0
   5 H    1     1.7352     3.2791    7 H    0 0 0
   5 H    1     2.0391     3.8533    1 C    0 0 0
   5 H    1     2.4967     4.7181    2 O    0 0 0
   5 H    1     3.2207     6.0862    4 N    0 0 0
   5 H    1     3.5429     6.6951    8 H    0 0 0

   7 H    1     1.0068     1.9027    3 N    0 0 0
   7 H    1     1.7352     3.2791    5 H    0 0 0
   7 H    1     2.1169     4.0003    1 C    0 0 0
   7 H    1     2.3564     4.4530    8 H    0 0 0
   7 H    1     2.5419     4.8034    4 N    0 0 0
   7 H    1     3.2009     6.0488    2 O    0 0 0

 TTTTTTTTTTTTTTTTTTTTTTTTTTTTTT AFTER FIRST TELAPSE       12.06 TCPU       11.88
 MMMMMMMMMMMMMMMMMMMMMMMMMMMMMMMMMMMMMMMMMMMMMMMMMMMMMMMMMMMMMMMMMMMMMMMMMMMMMMM
     ALPHA+BETA ELECTRONS
 MULLIKEN POPULATION ANALYSIS - NO. OF ELECTRONS   32.000000

  ATOM    Z CHARGE  A.O. POPULATION

   1 C    6  5.118  1.995  0.402  0.416  0.542  0.608  0.369  0.455  0.158
                    0.039  0.024  0.027  0.058  0.009  0.016
   2 O    8  8.558  1.996  0.434  0.666  0.808  0.654  1.463  0.814  0.929
                    0.760  0.015  0.011  0.009  0.000  0.000
   3 N    7  7.562  1.995  0.373  0.775  0.581  0.573  1.182  1.001  0.541
                    0.522  0.004  0.001  0.005  0.004  0.002
   4 N    7  7.562  1.995  0.373  0.775  0.581  0.573  1.182  1.001  0.541
                    0.522  0.004  0.001  0.005  0.004  0.002
   5 H    1  0.788  0.455  0.299  0.008  0.016  0.008
   6 H    1  0.788  0.455  0.299  0.008  0.016  0.008
   7 H    1  0.812  0.461  0.317  0.009  0.003  0.022
   8 H    1  0.812  0.461  0.317  0.009  0.003  0.022

  ATOM    Z CHARGE  SHELL POPULATION

   1 C    6  5.118  1.995  1.968  1.021  0.134
   2 O    8  8.558  1.996  2.562  3.966  0.034
   3 N    7  7.562  1.995  2.303  3.246  0.018
   4 N    7  7.562  1.995  2.303  3.246  0.018
   5 H    1  0.788  0.455  0.299  0.033
   6 H    1  0.788  0.455  0.299  0.033
   7 H    1  0.812  0.461  0.317  0.034
   8 H    1  0.812  0.461  0.317  0.034

 OVERLAP POPULATION CONDENSED TO ATOMS FOR FIRST   6 NEIGHBORS

 ATOM A   1 C    ATOM B     CELL      R(AB)/AU R(AB)/ANG    OVPOP(AB)
                  2 O    (  0  0  0)     2.301     1.217     0.663
                  3 N    (  0  0  0)     2.606     1.379     0.264
                  5 H    (  0  0  0)     3.853     2.039    -0.027
                  7 H    (  0  0  0)     4.000     2.117    -0.019

 ATOM A   2 O    ATOM B     CELL      R(AB)/AU R(AB)/ANG    OVPOP(AB)
                  1 C    (  0  0  0)     2.301     1.217     0.663
                  3 N    (  0  0  0)     4.316     2.284    -0.056
                  5 H    (  0  0  0)     4.718     2.497     0.003
                  7 H    (  0  0  0)     6.049     3.201     0.002

 ATOM A   3 N    ATOM B     CELL      R(AB)/AU R(AB)/ANG    OVPOP(AB)
                  5 H    (  0  0  0)     1.902     1.006     0.355
                  7 H    (  0  0  0)     1.903     1.007     0.347
                  1 C    (  0  0  0)     2.606     1.379     0.264
                  2 O    (  0  0  0)     4.316     2.284    -0.056
                  4 N    (  0  0  0)     4.368     2.312    -0.076
                  8 H    (  0  0  0)     4.803     2.542     0.001

 ATOM A   5 H    ATOM B     CELL      R(AB)/AU R(AB)/ANG    OVPOP(AB)
                  3 N    (  0  0  0)     1.902     1.006     0.355
                  7 H    (  0  0  0)     3.279     1.735    -0.029
                  1 C    (  0  0  0)     3.853     2.039    -0.027
                  2 O    (  0  0  0)     4.718     2.497     0.003
                  4 N    (  0  0  0)     6.086     3.221     0.004
                  8 H    (  0  0  0)     6.695     3.543    -0.000

 ATOM A   7 H    ATOM B     CELL      R(AB)/AU R(AB)/ANG    OVPOP(AB)
                  3 N    (  0  0  0)     1.903     1.007     0.347
                  5 H    (  0  0  0)     3.279     1.735    -0.029
                  1 C    (  0  0  0)     4.000     2.117    -0.019
                  8 H    (  0  0  0)     4.453     2.356     0.001
                  4 N    (  0  0  0)     4.803     2.542     0.001
                  2 O    (  0  0  0)     6.049     3.201     0.002
 EIGENVECTORS IN FORTRAN UNIT 10

 FINAL OPTIMIZED GEOMETRY - DIMENSIONALITY OF THE SYSTEM      0
 (NON PERIODIC DIRECTION: LATTICE PARAMETER FORMALLY SET TO 500)
 *******************************************************************************
 ATOMS IN THE ASYMMETRIC UNIT    5 - ATOMS IN THE UNIT CELL:    8
     ATOM             X(ANGSTROM)         Y(ANGSTROM)         Z(ANGSTROM)
 *******************************************************************************
      1 T   6 C     0.000000000000E+00  0.000000000000E+00  4.221735629410E-02
      2 T   8 O     0.000000000000E+00  0.000000000000E+00  1.259701956475E+00
      3 T   7 N     0.000000000000E+00  1.155851051230E+00 -7.098523234040E-01
      4 F   7 N     0.000000000000E+00 -1.155851051230E+00 -7.098523234040E-01
      5 T   1 H     0.000000000000E+00  2.024448989086E+00 -2.015401989397E-01
      6 F   1 H     0.000000000000E+00 -2.024448989086E+00 -2.015401989397E-01
      7 T   1 H     0.000000000000E+00  1.178200786464E+00 -1.716448634041E+00
      8 F   1 H     0.000000000000E+00 -1.178200786464E+00 -1.716448634041E+00

 T = ATOM BELONGING TO THE ASYMMETRIC UNIT
 INFORMATION **** fort.34 **** GEOMETRY OUTPUT FILE

 ****    4 SYMMOPS - TRANSLATORS IN FRACTIONAL UNITS
 **** MATRICES AND TRANSLATORS IN THE CRYSTALLOGRAPHIC REFERENCE FRAME
   V INV                    ROTATION MATRICES                   TRANSLATORS
   1   1  1.00  0.00  0.00  0.00  1.00  0.00  0.00  0.00  1.00  0.00  0.00  0.00
   2   2 -1.00  0.00  0.00  0.00 -1.00  0.00  0.00  0.00  1.00  0.00  0.00  0.00
   3   3 -1.00  0.00  0.00  0.00  1.00  0.00  0.00  0.00  1.00  0.00  0.00  0.00
   4   4  1.00  0.00  0.00  0.00 -1.00  0.00  0.00  0.00  1.00  0.00  0.00  0.00
 TTTTTTTTTTTTTTTTTTTTTTTTTTTTTT END         TELAPSE       12.07 TCPU       11.88
 EEEEEEEEEE TERMINATION  DATE 24 09 2020 TIME 14:16:40.0
