/home/desmarais/SVN_1316/bin/Linux-ifort_openmpi_i64_macchina_istrana/std/Pproperties
/scratch/desmarais/tmp_p4143715
script started on node2
BAND
WS2 M T K
2 6 500 20 50 1 0
3 0 0  0 0 0
0 0 0  2 2 0
END
END
************************************************
ANOTHER DROLLERY FILLED RUN OF THE PCRYSTAL CODE!
************************************************
Wed Sep 11 15:31:44 CEST 2024
--------------------------------------------------------------------------
No OpenFabrics connection schemes reported that they were able to be
used on a specific port.  As such, the openib BTL (OpenFabrics
support) will be disabled for this port.

  Local host:           node2
  Local device:         mlx5_0
  Local port:           1
  CPCs attempted:       udcm
--------------------------------------------------------------------------
[node2:4143816] [[39398,0],0] ORTE_ERROR_LOG: Data unpack would read past end of buffer in file util/show_help.c at line 501
[node2:4143816] [[39398,0],0] ORTE_ERROR_LOG: Data unpack would read past end of buffer in file util/show_help.c at line 501
[node2:4143816] 125 more processes have sent help message help-mpi-btl-openib-cpc-base.txt / no cpcs for port
[node2:4143816] Set MCA parameter "orte_base_help_aggregate" to 0 to see all help / error messages
         128 PROCESSORS WORKING

         
 *******************************************************************************
 *                                                                             *
 *                               CRYSTAL22                                     *
 *                      public : 1.0.1 - Jul 29th, 2021                        *
 *                       HTTP://WWW.CRYSTAL.UNITO.IT                           *
 *                                                                             *
 *                              MAIN AUTHORS                                   *
 *                                                                             *
 *  R. DOVESI(1,11), V.R. SAUNDERS(2), C. ROETTI(1,11), R. ORLANDO(1,11),      *
 *  C.M. ZICOVICH-WILSON(1,3), F. PASCALE(4), B. CIVALLERI(1,11),              *
 *  K. DOLL(5), N.M. HARRISON(6), I.J. BUSH(7), Ph. D'ARCO(8),                 *
 *  M. LLUNELL(9), M. CAUSA'(10), Y. NOEL(8), L. MASCHIO(1,11), A. ERBA(1,11)  *
 *  M. RE'RAT(14), S. CASASSA(1,11), B.G. SEARLE(2), J.K. DESMARAIS(1)         *
 *                                                                             *
 *        CONTRIBUTIONS TO THE CODE HAVE ALSO BEEN GIVEN BY                    *
 *                                                                             *
 *  M. FERRABONE(1,11), M. DE LA PIERRE(1,11), M. FERRERO(1,11),               *
 *  J. BAIMA(1,11), E. ALBANESE(1,11), M.F. PEINTINGER(12), R. BAST(13),       *
 *  B. KIRTMAN(15), V. LACIVITA(1,11), R. DEMICHELIS(1,16)                     *
 *  G. BRANDEBURG(17), S. SALUSTRO(1,11), G. SANSONE(1,11)                     *
 *  M.T. RUGGIERO(18), L.E. DAGA(1), L. DONA'(1), A. COSSARD(1)                *
 *                                                                             *
 * (1) THEORETICAL CHEMISTRY GROUP - UNIVERSITA' DI TORINO - TORINO (ITALY)    *
 * (2) SCIENTIFIC COMPUTING DEPARTMENT - STFC DARESBURY (UK)                   *
 * (3) UNIVERSIDAD AUTONOMA DEL ESTADO DE MORELOS - CUERNAVACA (MEXICO)        *
 * (4) UNIVERSITE' DE LORRAINE - NANCY (FRANCE)                                *
 * (5) UNIVERSITAET STUTTGART- STUTTGART (GERMANY)                             *
 * (6) IMPERIAL COLLEGE - LONDON (UK)                                          *
 * (7) SCIENTIFIC COMPUTING DEPARTMENT - STFC RAL (UK)                         *
 * (8) UPMC - SORBONNE UNIVERSITES - PARIS (FRANCE)                            *
 * (9) UNIVERSIDAD DE BARCELONA - BARCELONA (SPAIN)                            *
 *(10) UNIVERSITA' DI NAPOLI "FEDERICO II" - NAPOLI (ITALY)                    *
 *(11) NIS - NANOSTRUCTURED INTERFACES AND SURFACES - TORINO (ITALY)           *
 *(12) MPI FUER CHEMISCHE ENERGIEKONVERSION - MUELHEIM AN DER RUHR (GERMANY)   *
 *(13) UNIVERSITY OF TROMSO - TROMSO (NORWAY)                                  *
 *(14) UNIVERSITE' DE PAU ET DES PAYS DE L'ADOUR - PAU (FRANCE)                *
 *(15) UNIVERSITY OF CALIFORNIA SANTA BARBARA - SANTA BARBARA (USA)            *
 *(16) CURTIN UNIVERSITY - PERTH (AUSTRALIA)                                   *
 *(17) UNIVERSITY COLLEGE LONDON - LONDON (UK)                                 *
 *(18) UNIVERSITY OF VERMONT - BURLINGTON (USA)                                *
 *                                                                             *
 *******************************************************************************
 EEEEEEEEEE STARTING  DATE 11 09 2024 TIME 15:31:53.8
 INFORMATION **** SET_MPP **** PCRYSTAL CALCULATION
 lsoc T
 lsoc T
 lsoc T
 lsoc T
 lsoc T
 lsoc T
 lsoc T
 lsoc T
 lsoc T
 lsoc T
 lsoc T
 lsoc T
 lsoc T
 lsoc T
 lsoc T
 lsoc T
 lsoc T
 lsoc T
 lsoc T
 lsoc T
 lsoc T
 lsoc T
 lsoc T
 lsoc T
 lsoc T
 lsoc T
 lsoc T
 lsoc T
 lsoc T
 lsoc T
 lsoc T
 lsoc T
 lsoc T
 lsoc T
 lsoc T
 lsoc T
 lsoc T
 lsoc T
 lsoc T
 lsoc T
 lsoc T
 lsoc T
 lsoc T
 lsoc T
 lsoc T
 lsoc T
 lsoc T
 lsoc T
 lsoc T
 lsoc T
 lsoc T
 lsoc T
 lsoc T
 lsoc T
 lsoc T
 lsoc T
 lsoc T
 lsoc T
 lsoc T
 lsoc T
 lsoc T
 lsoc T
 lsoc T
 lsoc T
 lsoc T
 lsoc T
 lsoc T
 lsoc T
 lsoc T
 lsoc T
 lsoc T
 lsoc T
 lsoc T
 lsoc T
 lsoc T
 lsoc T
 lsoc T
 lsoc T
 lsoc T
 lsoc T
 lsoc T
 lsoc T
 lsoc T
 lsoc T
 lsoc T
 lsoc T
 lsoc T
 lsoc T
 lsoc T
 lsoc T
 lsoc T
 lsoc T
 lsoc T

 *******************************************************************************
 WS2 2c PBE - 2D slab test with soc                                              
 CRYSTAL - PROPERTIES - TYPE OF CALCULATION :  UNRESTRICTED OPEN SHELL
 *******************************************************************************
 KOHN-SHAM HAMILTONIAN

 (EXCHANGE)[CORRELATION] FUNCTIONAL:(PERDEW-BURKE-ERNZERHOF)[PERDEW-BURKE-ERNZERHOF]


 SPIN POLARIZED DFT SELECTED
 lsoc T
 lsoc T
 lsoc T
 lsoc T
 lsoc T
 lsoc T
 lsoc T
 lsoc T
 lsoc T
 lsoc T
 lsoc T
 lsoc T
 lsoc T
 lsoc T
 lsoc T
 lsoc T

 DIRECT LATTICE VECTOR COMPONENTS (ANGSTROM)
         3.15320    0.00000    0.00000
        -1.57660    2.73075    0.00000
         0.00000    0.00000  500.00000
 lsoc T
 lsoc T
 lsoc T
 lsoc T
 lsoc T

 LATTICE PARAMETERS  (ANGSTROM AND DEGREES) - PRIMITIVE CELL
       A          B          C         ALPHA      BETA     GAMMA        VOLUME
 lsoc T
    3.15320    3.15320  500.00000     90.0000   90.0000  120.0000       8.61061
 *******************************************************************************
 N. OF ATOMS PER CELL         3 COULOMB OVERLAP TOL          (T1) 10**   -8
 lsoc T
 lsoc T
 NUMBER OF SHELLS            26 COULOMB PENETRATION TOL      (T2) 10**   -8
 NUMBER OF AO                92 EXCHANGE OVERLAP TOL         (T3) 10**   20
 N. OF ELECTRONS PER CELL    46 EXCHANGE PSEUDO OVP (F(G))   (T4) 10**   20
 CORE ELECTRONS PER CELL     20 EXCHANGE PSEUDO OVP (P(G))   (T5) 10**   20
 N. OF SYMMETRY OPERATORS     1 POLE ORDER IN MONO ZONE                   4
 CORE  PSEUDO POTENTIAL         TOL. ON PSEUDO              (TP) 10**- 6
 *******************************************************************************
   ATOM N.AT.  SHELL    X(A)      Y(A)      Z(A)      EXAD       N.ELECT.
 *******************************************************************************
    1   16 S     6     1.577    -0.910     1.571   3.830E-01      16.109
    2  274 W    14    -1.577     0.910     0.000   3.000E-01      13.791
    3   16 S     6     1.577    -0.910    -1.571   3.830E-01      16.100
 *******************************************************************************
 DE(K)                   0.000E+00  ENERGY LEVEL SHIFTING        0.00000
 TOTAL ENERGY -8.6381795953455E+02  CONVERGENCE ON ENER       -8.595E-09
 KIN. ENERGY   0.0000000000000E+00  VIR. COEFF.           0.00000000E+00
 N. OF SCF CYCLES               54  FERMI ENERGY              -0.204E+00
 WEIGHT OF F(I) IN F(I+1)      90
 SHRINK. FACT.(MONKH.)    24 24  1  SHRINKING FACTOR(GILAT NET)       24
 NUMBER OF K POINTS IN THE IBZ 576  CELL VOLUME (A.U.)         30.749029
 *******************************************************************************
 lsoc T
 lsoc T
 lsoc T
 lsoc T

 GCALCO - MAX INDICES DIRECT LATTICE VECTOR    83    83     0
 NO.OF VECTORS CREATED 6999 STARS  503 RMAX   261.97890 BOHR
 lsoc T
 lsoc T
 lsoc T
 lsoc T
 lsoc T
 lsoc T
 lsoc T
 TTTTTTTTTTTTTTTTTTTTTTTTTTTTTT gordsh1     TELAPSE        8.89 TCPU        6.31

 MATRIX SIZE: P(G)   78322, F(G)   39645, P(G) IRR   41292, F(G) IRR   41292
 MAX G-VECTOR INDEX FOR 1- AND 2-ELECTRON INTEGRALS  55


 CAPPA:IS1 24;IS2 24;IS3  1; K PTS MONK NET 576; SYMMOPS:K SPACE   1;G SPACE   1


 DENSITY MATRIX FROM A TWO-COMPONENT SCF



 *******************************************************************************
 *                                                                             *
 *  BAND STRUCTURE                                                             *
 *  WS2 M T K                                                                  *
 *  FROM BAND  20 TO BAND 100                                                  *
 *  TOTAL OF 500 K-POINTS ALONG THE PATH                                       *
 *                                                                             *
 *******************************************************************************

 LINE  1 ( 0.50 0.00 0.00: 0.00 0.00 0.00) IN TERMS OF PRIMITIVE LATTICE VECTORS
 233 POINTS - SHRINKING_FACTOR1392
 CARTESIAN COORD. ( 0.527 0.304 0.000):( 0.000 0.000 0.000) STEP  0.0026


 LINE  2 ( 0.00 0.00 0.00: 0.33 0.33 0.00) IN TERMS OF PRIMITIVE LATTICE VECTORS
 267 POINTS - SHRINKING_FACTOR1602
 CARTESIAN COORD. ( 0.000 0.000 0.000):( 0.351 0.609 0.000) STEP  0.0026


18873 DATA WRITTEN ON UNIT 25 WITH THE FOLLOWING HEADER :
 -%-1BAND      3    0    0    0    0    0

21627 DATA WRITTEN ON UNIT 25 WITH THE FOLLOWING HEADER :
 -%-1BAND      0    0    0    2    2    0

 ENERGY RANGE (A.U.)   -5.73507 -   0.93759 EFERMI  -0.20408
     |*-------------------------------------------------*------------------*----*--------------*---****--*************-*****|
     |*                                                 *                  *    *              *   ****  ************* *****|
     |*                                                 *                  *    *              *   ****  ************* *****|
     |*                                                 *                  *    *              *   ****  ************* *****|
     |*                                                 *                  *    *              *   ****  ************* *****|
     |*                                                 *                  *    *              *   ****  ************* *****|
     |*                                                 *                  *    *              *   ****  ************* *****|
     |*                                                 *                  *    *              *   ****  ************* *****|
     |*                                                 *                  *    *              *   ****  ************* *****|
     |*                                                 *                  *    *              *   ****  ************* *****|
     |*                                                 *                  *    *              *   ****  ************* *****|
     |*                                                 *                  *    *              *   ****  ************* *****|
     |*                                                 *                  *    *              *   ****  ************* *****|
     |*                                                 *                  *    *              *   ****  ************* *****|
     |*                                                 *                  *    *              *   ****  ************* *****|
     |*                                                 *                  *    *              *   ****  ************* *****|
     |*                                                 *                  *    *              *   ****  ************* *****|
     |*                                                 *                  *    *              *   ****  ************* *****|
     |*                                                 *                  *    *              *   ****  ************* *****|
     |*                                                 *                  *    *              *   ****  ************* *****|
     |*                                                 *                  *    *              *   ****  ************* *****|
     |*                                                 *                  *    *              *   ****  ************* *****|
     |*                                                 *                  *    *              *   ****  ************* *****|
     |*                                                 *                  *    *              *   ****  ************* *****|
     |*                                                 *                  *    *              *   ****  ************* *****|
     |*                                                 *                  *    *              *   ****  ************* *****|
     |*                                                 *                  *    *              *   ****  ************* *****|
     |*                                                 *                  *    *              *   ****  ************* *****|
     |*                                                 *                  *    *              *   ****  ************* *****|
     |*                                                 *                  *    *              *   ****  ************* *****|
     |*                                                 *                  *    *              *   ****  ************* *****|
     |*                                                 *                  *    *              *   ****  ************* **** |
     |*                                                 *                  *    *              *   ****  ************* **** |
     |*                                                 *                  *    *              *   ****  ************* **** |
     |*                                                 *                  *    *              *   ****  ************* **** |
     |*                                                 *                  *    *              *   ****  ************* **** |
     |*                                                 *                  *    *              *   ****  ************* **** |
     |*                                                 *                  *    *              *   ****  ************* **** |
     |*                                                 *                  *    *              *   ****  ************* **** |
     |*                                                 *                  *    *              *   ****  ************* **** |
     |*                                                 *                  *    *              *   ****  ****************** |
     |*                                                 *                  *    *              *   ****  ****************** |
     |*                                                 *                  *    *              *   ****  ****************** |
     |*                                                 *                  *    *              *   ****  ****************** |
     |*                                                 *                  *    *              *   ****  ****************** |
     |*                                                 *                  *    *              *   ****  ****************** |
     |*                                                 *                  *    *              *   ****  ****************** |
     |*                                                 *                  *    *              *   ****  ****************** |
     |*                                                 *                  *    *              *   ****  ****************** |
     |*                                                 *                  *    *              *   ****  ****************** |
     |*                                                 *                  *    *              *   ****  ****************** |
     |*                                                 *                  *    *              *   ****  ****************** |
     |*                                                 *                  *    *              *   ****  ****************** |
     |*                                                 *                  *    *              *   ****  ****************** |
     |*                                                 *                  *    *              *   ****  ****************** |
     |*                                                 *                  *    *              *   ****  ****************** |
     |*                                                 *                  *    *             **   ****  ********** ******* |
     |*                                                 *                  *    *             **   ****  ********** ******* |
     |*                                                 *                  *    *             **   ****  ********** ******* |
     |*                                                 *                  *    *             **   ****  ********** ******* |
     |*                                                 *                  *    *             **   ****  ********** ******* |
     |*                                                 *                  *    *             **   ****  ********** ******* |
     |*                                                 *                  *    *             **   ****  ********** ******* |
     |*                                                 *                  *    *             **   ****  ********** ******* |
     |*                                                 *                  *    *             **   ****  ** ******* ******* |
     |*                                                 *                  *    *             **   ****  ** ******* ******* |
     |*                                                 *                  *    *             **   ****  ** ******* ******* |
     |*                                                 *                  *    *             **   ****  ** ******* ******* |
     |*                                                 *                  *    *             **   ****  ** ******* ******* |
     |*                                                 *                  *    *             **   ****  ** ******* ******* |
     |*                                                 *                  *    *             **   ****  ** ******* ******* |
     |*                                                 *                  *    *             **   ****  ** ******* ******* |
     |*                                                 *                  *    *             **   ****  ** ******* ******* |
     |*                                                 *                  *    *             **   ****  ** ******* ******* |
     |*                                                 *                  *    *             **   ****  ** ******* ******* |
     |*                                                 *                  *    *             **   ****  ** ******* ******* |
     |*                                                 *                  *    *             **   ****  ** ******* ******* |
     |*                                                 *                  *    *             **   ****  ** ******* ******* |
     |*                                                 *                  *    *             **   ****  ** ******* ******* |
     |*                                                 *                  *    *             **   ****  ** ******* ******* |
     |*                                                 *                  *    *             **   ****  ** ******* ******* |
     |*                                                 *                  *    *             **   ****  ** ******* ******* |
     |*                                                 *                  *    *             **   ****  ** ******* ******* |
     |*                                                 *                  *    *             **   ****  ** ******* ******* |
     |*                                                 *                  *    *             **   ****  ** ******* ******* |
     |*                                                 *                  *    *             **   **** *** ******* ******* |
     |*                                                 *                  *    *             **   **** *** ******* ******* |
     |*                                                 *                  *    *             **   **** *** ******* ******* |
     |*                                                 *                  *    *             **   **** *** ******* ******* |
     |*                                                 *                  *    *             **   **** *** ******* ******* |
     |*                                                 *                  *    *             **   **** *** ******* ******* |
     |*                                                 *                  *    *             **   **** *** ******* ******* |
     |*                                                 *                  *    *             **   **** *** ******* ******* |
     |*                                                 *                  *    *             **   **** *** ******* ******* |
     |*                                                 *                  *    *             **   **** *** ******* ******* |
     |*                                                 *                  *    *             **   **** *** ******  ******* |
     |*                                                 *                  *    *             **   **** *** ******  ******* |
     |*                                                 *                  *    *             **   **** *** ******  ******* |
     |*                                                 *                  *    *             **   **** *** ******  ******* |
     |*                                                 *                  *    *             **   **** *** ******  ******* |
     |*                                                 *                  *    *             **   **** *** ******  ******* |
     |*                                                 *                  *    *             **   **** *** ******  ******* |
     |*                                                 *                  *    *             **   **** *** ******  ******* |
     |*                                                 *                  *    *             **   **** *** ******  ******* |
     |*                                                 *                  *    *             **   **** *** ******  ******* |
     |*                                                 *                  *    *             **   **** *** ******  ******* |
     |*                                                 *                  *    *             **   **** *** ******  ******* |
     |*                                                 *                  *    *             **   **** *** ******  ******* |
     |*                                                 *                  *    *             **   **** *** ******  ******* |
     |*                                                 *                  *    *             **   **** *** ******  ******* |
     |*                                                 *                  *    *             **   **** *** ******  ******* |
     |*                                                 *                  *    *             **   **** *** ******  ******* |
     |*                                                 *                  *    *             **   **** *** ******  ******* |
     |*                                                 *                  *    *             **   **** *** ******  ******* |
     |*                                                 *                  *    *             **   **** *** ******  ******* |
     |*                                                 *                  *    *             **   **** *** ******  ******* |
     |*                                                 *                  *    *             **   **** *** ******  ******* |
     |*                                                 *                  *    *             **   **** *** ******  ******* |
     |*                                                 *                  *    *             **   **** *** ******  ******* |
     |*                                                 *                  *    *             **   **** *** ******  ******* |
     |*                                                 *                  *    *             **   **** *** ******  ******* |
     |*                                                 *                  *    *             **   **** *** ******  ******* |
     |*                                                 *                  *    *             **   **** *** ******  ******* |
     |*                                                 *                  *    *             **   **** *** ******  ******* |
     |*                                                 *                  *    *             **   **** *** ******  ******* |
     |*                                                 *                  *    *             **   **** *** ******  ******* |
     |*                                                 *                  *    *             **   **** *** ******  ******* |
     |*                                                 *                  *    *             **   **** *** ******* ******* |
     |*                                                 *                  *    *             **   **** *** ******* ******* |
     |*                                                 *                  *    *             **   **** *** ******* ******* |
     |*                                                 *                  *    *             **   **** *** ******* ******* |
     |*                                                 *                  *    *             **   **** *** ******* ******* |
     |*                                                 *                  *    *             **   **** *** ******* ******* |
     |*                                                 *                  *    *             **   **** *** ******* ******* |
     |*                                                 *                  *    *             **   **** *** ******* ******* |
     |*                                                 *                  *    *             **   ******** ******* ******* |
     |*                                                 *                  *    *             **   ******** ******* ******* |
     |*                                                 *                  *    *             **   ******** ******* ******* |
     |*                                                 *                  *    *             **   ******** ******* ******* |
     |*                                                 *                  *    *             **   *******  ******* ******* |
     |*                                                 *                  *    *             **   *******  ******* ******* |
     |*                                                 *                  *    *             **   *******  ******* ******* |
     |*                                                 *                  *    *             **   *******  ******* ******* |
     |*                                                 *                  *    *             **   *******  ******* ******* |
     |*                                                 *                  *    *             **   *******  ******* ******* |
     |*                                                 *                  *    *             **   *******  ******* ******* |
     |*                                                 *                  *    *             **   *******  ******* ******* |
     |*                                                 *                  *    *             **   *******  ******* ******* |
     |*                                                 *                  *    *             **   *******  ******* ******* |
     |*                                                 *                  *    *             **   *******  ******* ******* |
     |*                                                 *                  *    *             **   *******  ******* * ***** |
     |*                                                 *                  *    *             **   *******  ******* * ***** |
     |*                                                 *                  *    *             **   *******  ******* * ***** |
     |*                                                 *                  *    *             **   *******  ******* * ***** |
     |*                                                 *                  *    *             **   *******  ******* * ***** |
     |*                                                 *                  *    *             **   *******  ******* * ***** |
     |*                                                 *                  *    *             **   *******  ******* * ***** |
     |*                                                 *                  *    *             **   *******  ******* * ***** |
     |*                                                 *                  *    *             **   ******* ******** * ***** |
     |*                                                 *                  *    *             **   ******* ****** * * ***** |
     |*                                                 *                  *    *             **   ******* ****** * * ***** |
     |*                                                 *                  *    *             **   ******* ****** * * ***** |
     |*                                                 *                  *    *             **   ******* ****** * * ***** |
     |*                                                 *                  *    *             **   ******* ****** * * ***** |
     |*                                                 *                  *    *             **   ***** * ****** * * ***** |
     |*                                                 *                  *    *             **   * *** * ****** * * ***** |
     |*                                                 *                  *    *             **   * *** * ****** * * ***** |
     |*                                                 *                  *    *             *    * *** * ****** *** ***** |
     |*                                                 *                  *    *             *    * *** * ****** *** ***** |
     |*                                                 *                  *    *             *    * *** * ****** *** ***** |
     |*                                                 *                  *    *             *    * *** * ****** *** ***** |
     |*                                                 *                  *    *             *    * *** * ****** *** ***** |
     |*                                                 *                  *    *            **    * *** * ****** *** ***** |
     |*                                                 *                  *    *            **    * *** * ****** *** ***** |
     |*                                                 *                  *    *            **    * *** * ****** *** ***** |
     |*                                                 *                  *    *            **    * *** * ****** *** ***** |
     |*                                                 *                  *    *            **    * *** * ****** *** ***** |
     |*                                                 *                  *    *            **    * *** * ****** *** ***** |
     |*                                                 *                  *    *            **    * *** * ****** *** ***** |
     |*                                                 *                  *    *            **    * *** * ****** *** ***** |
     |*                                                 *                  *    *            **    * *** * ****** *** ***** |
     |*                                                 *                  *    *            **    * *** * ****** *** ***** |
     |*                                                 *                  *    *            **    * *** * ****** *** ***** |
     |*                                                 *                  *    *            **    * *** * ****** *** ***** |
     |*                                                 *                  *    *            **    * *** * ****** *** ***** |
     |*                                                 *                  *    *            **    * *** * ****** *** ***** |
     |*                                                 *                  *    *            **    * *** * ****** *** ***** |
     |*                                                 *                  *    *            **    * *** * ****** *** ***** |
     |*                                                 *                  *    *            **    * *** * ****** *** ***** |
     |*                                                 *                  *    *            **    * *** * ****** *** ***** |
     |*                                                 *                  *    *            **    * *** * ****** *** ***** |
     |*                                                 *                  *    *            **    * *** * ****** *** ***** |
     |*                                                 *                  *    *            **    * *** * ****** **  ***** |
     |*                                                 *                  *    *            **    * *** * ****** **  ***** |
     |*                                                 *                  *    *            **    * *** * ****** **  ***** |
     |*                                                 *                  *    *            **    * *** * ****** **  ***** |
     |*                                                 *                  *    *            **    * *** * ****** **  ***** |
     |*                                                 *                  *    *            **    * *** * ****** **  ***** |
     |*                                                 *                  *    *            **    * *** * ****** **  ***** |
     |*                                                 *                  *    *            **    * *** * ****** **  ***** |
     |*                                                 *                  *    *            **    * *** * ****** **  ***** |
     |*                                                 *                  *    *            **    * *** * ****** ** ****** |
     |*                                                 *                  *    *            **    * *** * ****** ** * **** |
     |*                                                 *                  *    *            **    * *** * ******  * * **** |
     |*                                                 *                  *    *            **    * *** * ******  * * **** |
     |*                                                 *                  *    *            **    * *** * ******  * * **** |
     |*                                                 *                  *    *            **    * *** * ******  * * **** |
     |*                                                 *                  *    *            **    * *** * *** **  * * **** |
     |*                                                 *                  *    *            **    * *** * *** **  * * **** |
     |*                                                 *                  *    *            **    * *** * *** **  * * **** |
     |*                                                 *                  *    *            **    * *** * *** **  * * **** |
     |*                                                 *                  *    *            **    * *** * *** **  * * **** |
     |*                                                 *                  *    *            **    * *** * *** **  * * **** |
     |*                                                 *                  *    *            **    * *** * *** **  * * **** |
     |*                                                 *                  *    *            **    * *** * *** **  * * **** |
     |*                                                 *                  *    *            **    * *** * *** **  * * **** |
     |*                                                 *                  *    *            **    * *** * *** **  * * **** |
     |*                                                 *                  *    *            **    * *** * *** **  * * **** |
     |*                                                 *                  *    *            **    * *** * *** **  * * **** |
     |*                                                 *                  *    *            **    * *** * *** **  * * **** |
     |*                                                 *                  *    *            **    * *** * *** **  * * **** |
     |*                                                 *                  *    *            **    * *** * *** **  * * **** |
     |*                                                 *                  *    *            **    * *** * *** **  * * **** |
     |*                                                 *                  *    *            **    * *** * *** **  * * **** |
     |*                                                 *                  *    *            **    * *** * *** **  * * **** |
     |*                                                 *                  *    *            **    * *** * *** **  * * **** |
     |*                                                 *                  *    *            **    * *** ** ** **  * * **** |
     |*                                                 *                  *    *            **    * *** ** ** **  * * **** |
     |*                                                 *                  *    *            **    * *** ** ** **  * * **** |
     |*                                                 *                  *    *            **    * *** ** ** **  * * **** |
     |*                                                 *                  *    *            **    * *** ** ** **  * * **** |
     |*                                                 *                  *    *            **    * *** ** ** **  * * **** |
     |*-------------------------------------------------*------------------*----*------------**----*-***-**-**-**--*-*-****-|
     |*                                                 *                  *    *            **    * *** ** ** **  * * **** |
     |*                                                 *                  *    *            **    * *** ** ** **  * * **** |
     |*                                                 *                  *    *            **    * *** ** ** **  * * **** |
     |*                                                 *                  *    *            **    * *** ** ** **  * * **** |
     |*                                                 *                  *    *            **    * *** ** ** **  * * **** |
     |*                                                 *                  *    *            **    * *** ** ** **  * * **** |
     |*                                                 *                  *    *            **    * *** * *** **  * * **** |
     |*                                                 *                  *    *            **    * *** * *** **  * * **** |
     |*                                                 *                  *    *            **    * *** * *** **  * * **** |
     |*                                                 *                  *    *            **    * *** * *** **  * * **** |
     |*                                                 *                  *    *            **    * *** * *** **  * * **** |
     |*                                                 *                  *    *            **    * *** * *** **  * * **** |
     |*                                                 *                  *    *            **    * *** * *** **  * * **** |
     |*                                                 *                  *    *            **    * *** * *** **  * * **** |
     |*                                                 *                  *    *            **    * *** * *** **  * * **** |
     |*                                                 *                  *    *            **    * *** * *** **  * * **** |
     |*                                                 *                  *    *            **    * *** * *** **  * * **** |
     |*                                                 *                  *    *            **    * *** * *** **  * * **** |
     |*                                                 *                  *    *            **    * *** * *** **  * * **** |
     |*                                                 *                  *    *            **    * *** * *** **  * * **** |
     |*                                                 *                  *    *            **    * *** * *** **  * * **** |
     |*                                                 *                  *    *            **    * *** * *** **  * * **** |
     |*                                                 *                  *    *            **    * *** * *** **  * * **** |
     |*                                                 *                  *    *            **    * *** * *** **  * * **** |
     |*                                                 *                  *    *            **    * *** * ******  * * **** |
     |*                                                 *                  *    *            **    * *** * ******  * * **** |
     |*                                                 *                  *    *            **    * *** * ******  * * **** |
     |*                                                 *                  *    *            **    * *** * ******  * * **** |
     |*                                                 *                  *    *            **    * *** * ******  * * **** |
     |*                                                 *                  *    *            **    * *** * ******  * * **** |
     |*                                                 *                  *    *            **    * *** * ****** ** ****** |
     |*                                                 *                  *    *            **    * *** * ****** **  ***** |
     |*                                                 *                  *    *            **    * *** * ****** **  ***** |
     |*                                                 *                  *    *            **    * *** * ****** **  ***** |
     |*                                                 *                  *    *            **    * *** * ****** **  ***** |
     |*                                                 *                  *    *            **    * *** * ****** **  ***** |
     |*                                                 *                  *    *            **    * *** * ****** **  ***** |
     |*                                                 *                  *    *            **    * *** * ****** **  ***** |
     |*                                                 *                  *    *            **    * *** * ****** *** ***** |
     |*                                                 *                  *    *            **    * *** * ****** *** ***** |
     |*                                                 *                  *    *            **    * *** * ****** *** ***** |
     |*                                                 *                  *    *            **    * *** * ****** *** ***** |
     |*                                                 *                  *    *            **    * *** * ****** *** ***** |
     |*                                                 *                  *    *            **    * *** * ****** *** ***** |
     |*                                                 *                  *    *            **    * *** * ****** *** ***** |
     |*                                                 *                  *    *            **    * *** * ****** *** ***** |
     |*                                                 *                  *    *            **    * *** * ****** *** ***** |
     |*                                                 *                  *    *            **    * *** * ****** *** ***** |
     |*                                                 *                  *    *            **    * *** * ****** *** ***** |
     |*                                                 *                  *    *            **    * *** * ****** *** ***** |
     |*                                                 *                  *    *            **    * *** * ****** *** ***** |
     |*                                                 *                  *    *            **    * *** * ****** *** ***** |
     |*                                                 *                  *    *            **    * *** * ****** *** ***** |
     |*                                                 *                  *    *            **    * *** * ****** *** ***** |
     |*                                                 *                  *    *            **    * *** * ****** *** ***** |
     |*                                                 *                  *    *            **    * *** * ****** *** ***** |
     |*                                                 *                  *    *            **    * *** * ****** *** ***** |
     |*                                                 *                  *    *            **    * *** * ****** *** ***** |
     |*                                                 *                  *    *            **    * *** * ****** *** ***** |
     |*                                                 *                  *    *            **    * *** * ****** *** ***** |
     |*                                                 *                  *    *             *    * *** * ****** *** ***** |
     |*                                                 *                  *    *             *    * *** * ****** *** ***** |
     |*                                                 *                  *    *             *    * *** * ****** *** ***** |
     |*                                                 *                  *    *             *    * *** * ****** *** ***** |
     |*                                                 *                  *    *             *    * *** * ****** *** ***** |
     |*                                                 *                  *    *             **   * *** * ****** *** ***** |
     |*                                                 *                  *    *             **   ***** * ****** *** ***** |
     |*                                                 *                  *    *             **   ***** * ****** *** ***** |
     |*                                                 *                  *    *             **   ******* ****** *** ***** |
     |*                                                 *                  *    *             **   ******* ****** *** ***** |
     |*                                                 *                  *    *             **   ******* ****** *** ***** |
     |*                                                 *                  *    *             **   ******* ****** *** ***** |
     |*                                                 *                  *    *             **   *******  ***** *** ***** |
     |*                                                 *                  *    *             **   *******  ********* ***** |
     |*                                                 *                  *    *             **   *******  ********* ***** |
     |*                                                 *                  *    *             **   *******  ********* ***** |
     |*                                                 *                  *    *             **   *******  ********* ***** |
     |*                                                 *                  *    *             **   *******  ********* ***** |
     |*                                                 *                  *    *             **   *******  *************** |
     |*                                                 *                  *    *             **   *******  *************** |
     |*                                                 *                  *    *             **   ******** *************** |
     |*                                                 *                  *    *             **   ******** ******* ******* |
     |*                                                 *                  *    *             **   ******** ******* ******* |
     |*                                                 *                  *    *             **   ******** ******* ******* |
     |*                                                 *                  *    *             **   ******** ******* ******* |
     |*                                                 *                  *    *             **   ******** ******* ******* |
     |*                                                 *                  *    *             **   ******** ******* ******* |
     |*                                                 *                  *    *             **   ******** ******* ******* |
     |*                                                 *                  *    *             **   ******** ******* ******* |
     |*                                                 *                  *    *             **   ******** ******* ******* |
     |*                                                 *                  *    *             **   ******** ******* ******* |
     |*                                                 *                  *    *             **   ******** ******* ******* |
     |*                                                 *                  *    *             **   ******** ******* ******* |
     |*                                                 *                  *    *             **   ******** ******* ******* |
     |*                                                 *                  *    *             **   ******** ******* ******* |
     |*                                                 *                  *    *             **   ******** ******* ******* |
     |*                                                 *                  *    *             **   ******** ******* ******* |
     |*                                                 *                  *    *             **   ******** ******* ******* |
     |*                                                 *                  *    *             **   ******** ******* ******* |
     |*                                                 *                  *    *             **   ******** ******* ******* |
     |*                                                 *                  *    *             **   ******** ******* ******* |
     |*                                                 *                  *    *             **   ******** ******* ******* |
     |*                                                 *                  *    *             **   ******** ******* ******* |
     |*                                                 *                  *    *             **   **** *** ******* ******* |
     |*                                                 *                  *    *             **   **** *** ******* ******* |
     |*                                                 *                  *    *             **   **** *** ******* ******* |
     |*                                                 *                  *    *             **   **** *** ******* ******* |
     |*                                                 *                  *    *             **   **** *** ******* ******* |
     |*                                                 *                  *    *             **   **** *** ******* ******* |
     |*                                                 *                  *    *             **   **** *** ******* ******* |
     |*                                                 *                  *    *             **   **** *** ******* ******* |
     |*                                                 *                  *    *             **   **** *** ******* ******* |
     |*                                                 *                  *    *             **   **** *** ******* ******* |
     |*                                                 *                  *    *             **   **** *** ******* ******* |
     |*                                                 *                  *    *             **   **** *** ******* ******* |
     |*                                                 *                  *    *             **   **** *** ******* ******* |
     |*                                                 *                  *    *             **   **** *** ******* ******* |
     |*                                                 *                  *    *             **   **** *** ******* ******* |
     |*                                                 *                  *    *             **   **** *** ******* ******* |
     |*                                                 *                  *    *             **   **** *** ******* ******* |
     |*                                                 *                  *    *             **   **** *** ******* ******* |
     |*                                                 *                  *    *             **   **** *** ******* ******* |
     |*                                                 *                  *    *             **   **** *** ******* ******* |
     |*                                                 *                  *    *             **   **** *** ******* ******* |
     |*                                                 *                  *    *             **   **** *** ******* ******* |
     |*                                                 *                  *    *             **   **** *** ******* ******* |
     |*                                                 *                  *    *             **   **** *** ******* ******* |
     |*                                                 *                  *    *             **   **** *** ******* ******* |
     |*                                                 *                  *    *             **   **** *** ******* ******* |
     |*                                                 *                  *    *             **   **** *** ******* ******* |
     |*                                                 *                  *    *             **   **** *** ******* ******* |
     |*                                                 *                  *    *             **   **** *** ******* ******* |
     |*                                                 *                  *    *             **   **** *** ******* ******* |
     |*                                                 *                  *    *             **   **** *** ******* ******* |
     |*                                                 *                  *    *             **   **** *** ******* ******* |
     |*                                                 *                  *    *             **   **** *** ******* ******* |
     |*                                                 *                  *    *             **   **** *** ******* ******* |
     |*                                                 *                  *    *             **   **** *** ******* ******* |
     |*                                                 *                  *    *             **   **** *** ******* ******* |
     |*                                                 *                  *    *             **   **** *** ******* ******* |
     |*                                                 *                  *    *             **   **** *** ******* ******* |
     |*                                                 *                  *    *             **   **** *** ******* ******* |
     |*                                                 *                  *    *             **   **** *** ******* ******* |
     |*                                                 *                  *    *             **   **** *** ******* ******* |
     |*                                                 *                  *    *             **   **** *** ******* ******* |
     |*                                                 *                  *    *             **   **** *** ******* ******* |
     |*                                                 *                  *    *             **   **** *** ******* ******* |
     |*                                                 *                  *    *             **   **** *** ******* ******* |
     |*                                                 *                  *    *             **   **** *** ******* ******* |
     |*                                                 *                  *    *             **   **** *** ******* ******* |
     |*                                                 *                  *    *             **   **** *** ******* ******* |
     |*                                                 *                  *    *             **   **** *** ******* ******* |
     |*                                                 *                  *    *             **   **** *** ******* ******* |
     |*                                                 *                  *    *             **   **** *** ******* ******* |
     |*                                                 *                  *    *             **   **** *** ******* ******* |
     |*                                                 *                  *    *             **   **** *** ******* ******* |
     |*                                                 *                  *    *             **   **** *** ******* ******* |
     |*                                                 *                  *    *             **   **** *** ******* ******* |
     |*                                                 *                  *    *             **   **** *** ******* ******* |
     |*                                                 *                  *    *             **   **** *** *************** |
     |*                                                 *                  *    *             **   **** *** *************** |
     |*                                                 *                  *    *             **   **** *** *************** |
     |*                                                 *                  *    *             **   **** *** *************** |
     |*                                                 *                  *    *             **   **** *** *************** |
     |*                                                 *                  *    *             **   **** *** ******** ****** |
     |*                                                 *                  *    *             **   **** *** ******** ****** |
     |*                                                 *                  *    *             **   **** *** ******** ****** |
     |*                                                 *                  *    *             **   **** *** ******** ****** |
     |*                                                 *                  *    *             **   **** *** ******** ****** |
     |*                                                 *                  *    *             **   **** *** ******** ****** |
     |*                                                 *                  *    *             **   **** *** ******** ****** |
     |*                                                 *                  *    *             **   **** *** ******** ****** |
     |*                                                 *                  *    *             **   **** *** ******** ****** |
     |*                                                 *                  *    *             **   **** *** ******** ****** |
     |*                                                 *                  *    *             **   **** *** ******** ****** |
     |*                                                 *                  *    *              *   **** *** ******** ****** |
     |*                                                 *                  *    *              *   **** *** ******** ****** |
     |*                                                 *                  *    *              *   **** *** ******** ****** |
     |*                                                 *                  *    *              *   **** *** ******** *******|
     |*                                                 *                  *    *              *   **** *** ******** *******|
     |*                                                 *                  *    *              *   **** *** ******** *******|
     |*                                                 *                  *    *              *   **** *** ******** *******|
     |*                                                 *                  *    *              *   **** *** ******** *******|
     |*                                                 *                  *    *              *   **** *** ******** *******|
     |*                                                 *                  *    *              *   **** *** ******** *******|
     |*                                                 *                  *    *              *   **** *** ******** *******|
     |*                                                 *                  *    *              *   **** *** ******** * *****|
     |*                                                 *                  *    *              *   **** *** ******** * *****|
     |*                                                 *                  *    *              *   **** *** ******** * *****|
     |*                                                 *                  *    *              *   ******** ******** * *****|
     |*                                                 *                  *    *              *   ******** ******** * *****|
     |*                                                 *                  *    *              *   ******** ******** * *****|
     |*                                                 *                  *    *              *   ******** ******** * *****|
     |*                                                 *                  *    *              *   ******** ******** * *****|
     |*                                                 *                  *    *              *   ***** ** ******** * *****|
     |*                                                 *                  *    *              *   ***** ** ******** * *****|
     |*                                                 *                  *    *              *   ***** ** ********** *****|
     |*                                                 *                  *    *              *   ***** ** ********** *****|
     |*                                                 *                  *    *              *   ***** ** ********** *****|
     |*                                                 *                  *    *              *   ***** ** ********** *****|
     |*                                                 *                  *    *              *   ***** ** ********** *****|
     |*                                                 *                  *    *              *   ***** ** ********** *****|
     |*                                                 *                  *    *              *   ***** ** ********** *****|
     |*                                                 *                  *    *              *   ***** ** ********** *****|
     |*                                                 *                  *    *              *   ******** ********** *****|
     |*                                                 *                  *    *              *   ******** ********** *****|
     |*                                                 *                  *    *              *   ******** ********** *****|
     |*                                                 *                  *    *              *   ******** ********** *****|
     |*                                                 *                  *    *              *   ******** ********** *****|
     |*                                                 *                  *    *              *   ******** ********** *****|
     |*                                                 *                  *    *              *   ******** ********** *****|
     |*                                                 *                  *    *              *   ******** ********** *****|
     |*                                                 *                  *    *              *   ******** ********** *****|
     |*                                                 *                  *    *              *   ******** ********** *****|
     |*                                                 *                  *    *              *   ******************* *****|
     |*                                                 *                  *    *              *   ******************* *****|
     |*                                                 *                  *    *              *   ******************* *****|
     |*                                                 *                  *    *              *   ******************* *****|
     |*                                                 *                  *    *              *   ******************* **** |
     |*                                                 *                  *    *              *   ******************* **** |
     |*                                                 *                  *    *              *   ******************* **** |
     |*                                                 *                  *    *              *   *** *************** **** |
     |*                                                 *                  *    *              *   *** *************** **** |
     |*                                                 *                  *    *              *   *** *************** **** |
     |*                                                 *                  *    *              *   *** *************** **** |
     |*                                                 *                  *    *              *   *** ****** ******** **** |
     |*                                                 *                  *    *              *   *** ****** ************* |
     |*                                                 *                  *    *              *   *** ****** ************* |
     |*                                                 *                  *    *              *   *** ****** ************* |
     |*                                                 *                  *    *              *   *** ****** ************* |
     |*                                                 *                  *    *              *   *** ****** ************* |
     |*                                                 *                  *    *              *   *** ****** ************* |
     |*                                                 *                  *    *              *   *** ****** ************* |
     |*                                                 *                  *    *              *   *** ****** ************* |
     |*                                                 *                  *    *              *   *** ****** ***** ******* |
     |*                                                 *                  *    *              *   *** ****** ***** ******* |
     |*                                                 *                  *    *              *   *** ****** ***** ******* |
     |*                                                 *                  *    *              *   *** ****** ***** ******* |
     |*                                                 *                  *    *              *   *** ****** ***** ******* |
     |*                                                 *                  *    *              *   *** ****** ***** ******* |
     |*                                                 *                  *    *              *   *** ****** ***** ******* |
     |*                                                 *                  *    *              *   *** ****** ***** ******* |
     |*                                                 *                  *    *              *   *** ****** ***** ******* |
     |*                                                 *                  *    *              *   *** ****** ***** ******* |
     |*                                                 *                  *    *              *   *** ****** ***** ******* |
     |*                                                 *                  *    *              *   *** ****** ***** ******* |
     |*                                                 *                  *    *              *   *** ****** ***** ******* |
     |*                                                 *                  *    *              *   *** ****** ***** ******* |
     |*                                                 *                  *    *              *   *** ****** ***** ******* |
     |*                                                 *                  *    *              *   *** ****** ***** ******* |
     |*                                                 *                  *    *              *   *** ****** ***** ******* |
     |*                                                 *                  *    *              *   *** ****** ***** ******* |
     |*                                                 *                  *    *              *   *** ****** ***** ******* |
     |*                                                 *                  *    *              *   *** ****** ***** ******* |
     |*                                                 *                  *    *              *   *** ****** ***** ******* |
     |*                                                 *                  *    *              *   *** ****** ***** ******* |
     |*                                                 *                  *    *              *   *** ****** ***** ******* |
     |*                                                 *                  *    *              *   *** ****** ***** ********|
     |*                                                 *                  *    *              *   *** ****** ***** ********|
     |*                                                 *                  *    *              *   *** ****** ***** ********|
     |*                                                 *                  *    *              *   *** ****** ***** ********|
     |*                                                 *                  *    *              *   *** ****** ***** ********|
     |*                                                 *                  *    *              *   *** ****** ***** ********|
     |*                                                 *                  *    *              *   *** ****** ***** ********|
     |*                                                 *                  *    *              *   *** ****** ***** ********|
     |*                                                 *                  *    *              *   *** ****** ***** ********|
     |*-------------------------------------------------*------------------*----*--------------*---***-******-*****-********|

 CAPPA:IS1 24;IS2 24;IS3  1; K PTS MONK NET 576; SYMMOPS:K SPACE   1;G SPACE   1

 TTTTTTTTTTTTTTTTTTTTTTTTTTTTTT BAND        TELAPSE       10.31 TCPU        7.67
 ENDPROP   
 TTTTTTTTTTTTTTTTTTTTTTTTTTTTTT END         TELAPSE       10.31 TCPU        7.67
 EEEEEEEEEE TERMINATION  DATE 11 09 2024 TIME 15:31:55.3
Wed Sep 11 15:32:01 CEST 2024
total 1299724
-rw-r--r-- 1 desmarais avogadro   534268 Sep 11 15:31 BAND.DAT
-rw-r--r-- 1 desmarais avogadro       67 Sep 11 15:31 INPUT
-rwxr-xr-x 1 desmarais avogadro 70357352 Sep 11 15:31 Pproperties-8859
-rw-r--r-- 1 desmarais avogadro        0 Sep 11 15:31 fort.10.pe000
-rw-r--r-- 1 desmarais avogadro        0 Sep 11 15:31 fort.10.pe001
-rw-r--r-- 1 desmarais avogadro        0 Sep 11 15:31 fort.10.pe002
-rw-r--r-- 1 desmarais avogadro        0 Sep 11 15:31 fort.10.pe003
-rw-r--r-- 1 desmarais avogadro        0 Sep 11 15:31 fort.10.pe004
-rw-r--r-- 1 desmarais avogadro        0 Sep 11 15:31 fort.10.pe005
-rw-r--r-- 1 desmarais avogadro        0 Sep 11 15:31 fort.10.pe006
-rw-r--r-- 1 desmarais avogadro        0 Sep 11 15:31 fort.10.pe007
-rw-r--r-- 1 desmarais avogadro        0 Sep 11 15:31 fort.10.pe008
-rw-r--r-- 1 desmarais avogadro        0 Sep 11 15:31 fort.10.pe009
-rw-r--r-- 1 desmarais avogadro        0 Sep 11 15:31 fort.10.pe010
-rw-r--r-- 1 desmarais avogadro        0 Sep 11 15:31 fort.10.pe011
-rw-r--r-- 1 desmarais avogadro        0 Sep 11 15:31 fort.10.pe012
-rw-r--r-- 1 desmarais avogadro        0 Sep 11 15:31 fort.10.pe013
-rw-r--r-- 1 desmarais avogadro        0 Sep 11 15:31 fort.10.pe014
-rw-r--r-- 1 desmarais avogadro        0 Sep 11 15:31 fort.10.pe015
-rw-r--r-- 1 desmarais avogadro        0 Sep 11 15:31 fort.10.pe016
-rw-r--r-- 1 desmarais avogadro        0 Sep 11 15:31 fort.10.pe017
-rw-r--r-- 1 desmarais avogadro        0 Sep 11 15:31 fort.10.pe018
-rw-r--r-- 1 desmarais avogadro        0 Sep 11 15:31 fort.10.pe019
-rw-r--r-- 1 desmarais avogadro        0 Sep 11 15:31 fort.10.pe020
-rw-r--r-- 1 desmarais avogadro        0 Sep 11 15:31 fort.10.pe021
-rw-r--r-- 1 desmarais avogadro        0 Sep 11 15:31 fort.10.pe022
-rw-r--r-- 1 desmarais avogadro        0 Sep 11 15:31 fort.10.pe023
-rw-r--r-- 1 desmarais avogadro        0 Sep 11 15:31 fort.10.pe024
-rw-r--r-- 1 desmarais avogadro        0 Sep 11 15:31 fort.10.pe025
-rw-r--r-- 1 desmarais avogadro        0 Sep 11 15:31 fort.10.pe026
-rw-r--r-- 1 desmarais avogadro        0 Sep 11 15:31 fort.10.pe027
-rw-r--r-- 1 desmarais avogadro        0 Sep 11 15:31 fort.10.pe028
-rw-r--r-- 1 desmarais avogadro        0 Sep 11 15:31 fort.10.pe029
-rw-r--r-- 1 desmarais avogadro        0 Sep 11 15:31 fort.10.pe030
-rw-r--r-- 1 desmarais avogadro        0 Sep 11 15:31 fort.10.pe031
-rw-r--r-- 1 desmarais avogadro        0 Sep 11 15:31 fort.10.pe032
-rw-r--r-- 1 desmarais avogadro        0 Sep 11 15:31 fort.10.pe033
-rw-r--r-- 1 desmarais avogadro        0 Sep 11 15:31 fort.10.pe034
-rw-r--r-- 1 desmarais avogadro        0 Sep 11 15:31 fort.10.pe035
-rw-r--r-- 1 desmarais avogadro        0 Sep 11 15:31 fort.10.pe036
-rw-r--r-- 1 desmarais avogadro        0 Sep 11 15:31 fort.10.pe037
-rw-r--r-- 1 desmarais avogadro        0 Sep 11 15:31 fort.10.pe038
-rw-r--r-- 1 desmarais avogadro        0 Sep 11 15:31 fort.10.pe039
-rw-r--r-- 1 desmarais avogadro        0 Sep 11 15:31 fort.10.pe040
-rw-r--r-- 1 desmarais avogadro        0 Sep 11 15:31 fort.10.pe041
-rw-r--r-- 1 desmarais avogadro        0 Sep 11 15:31 fort.10.pe042
-rw-r--r-- 1 desmarais avogadro        0 Sep 11 15:31 fort.10.pe043
-rw-r--r-- 1 desmarais avogadro        0 Sep 11 15:31 fort.10.pe044
-rw-r--r-- 1 desmarais avogadro        0 Sep 11 15:31 fort.10.pe045
-rw-r--r-- 1 desmarais avogadro        0 Sep 11 15:31 fort.10.pe046
-rw-r--r-- 1 desmarais avogadro        0 Sep 11 15:31 fort.10.pe047
-rw-r--r-- 1 desmarais avogadro        0 Sep 11 15:31 fort.10.pe048
-rw-r--r-- 1 desmarais avogadro        0 Sep 11 15:31 fort.10.pe049
-rw-r--r-- 1 desmarais avogadro        0 Sep 11 15:31 fort.10.pe050
-rw-r--r-- 1 desmarais avogadro        0 Sep 11 15:31 fort.10.pe051
-rw-r--r-- 1 desmarais avogadro        0 Sep 11 15:31 fort.10.pe052
-rw-r--r-- 1 desmarais avogadro        0 Sep 11 15:31 fort.10.pe053
-rw-r--r-- 1 desmarais avogadro        0 Sep 11 15:31 fort.10.pe054
-rw-r--r-- 1 desmarais avogadro        0 Sep 11 15:31 fort.10.pe055
-rw-r--r-- 1 desmarais avogadro        0 Sep 11 15:31 fort.10.pe056
-rw-r--r-- 1 desmarais avogadro        0 Sep 11 15:31 fort.10.pe057
-rw-r--r-- 1 desmarais avogadro        0 Sep 11 15:31 fort.10.pe058
-rw-r--r-- 1 desmarais avogadro        0 Sep 11 15:31 fort.10.pe059
-rw-r--r-- 1 desmarais avogadro        0 Sep 11 15:31 fort.10.pe060
-rw-r--r-- 1 desmarais avogadro        0 Sep 11 15:31 fort.10.pe061
-rw-r--r-- 1 desmarais avogadro        0 Sep 11 15:31 fort.10.pe062
-rw-r--r-- 1 desmarais avogadro        0 Sep 11 15:31 fort.10.pe063
-rw-r--r-- 1 desmarais avogadro        0 Sep 11 15:31 fort.10.pe064
-rw-r--r-- 1 desmarais avogadro        0 Sep 11 15:31 fort.10.pe065
-rw-r--r-- 1 desmarais avogadro        0 Sep 11 15:31 fort.10.pe066
-rw-r--r-- 1 desmarais avogadro        0 Sep 11 15:31 fort.10.pe067
-rw-r--r-- 1 desmarais avogadro        0 Sep 11 15:31 fort.10.pe068
-rw-r--r-- 1 desmarais avogadro        0 Sep 11 15:31 fort.10.pe069
-rw-r--r-- 1 desmarais avogadro        0 Sep 11 15:31 fort.10.pe070
-rw-r--r-- 1 desmarais avogadro        0 Sep 11 15:31 fort.10.pe071
-rw-r--r-- 1 desmarais avogadro        0 Sep 11 15:31 fort.10.pe072
-rw-r--r-- 1 desmarais avogadro        0 Sep 11 15:31 fort.10.pe073
-rw-r--r-- 1 desmarais avogadro        0 Sep 11 15:31 fort.10.pe074
-rw-r--r-- 1 desmarais avogadro        0 Sep 11 15:31 fort.10.pe075
-rw-r--r-- 1 desmarais avogadro        0 Sep 11 15:31 fort.10.pe076
-rw-r--r-- 1 desmarais avogadro        0 Sep 11 15:31 fort.10.pe077
-rw-r--r-- 1 desmarais avogadro        0 Sep 11 15:31 fort.10.pe078
-rw-r--r-- 1 desmarais avogadro        0 Sep 11 15:31 fort.10.pe079
-rw-r--r-- 1 desmarais avogadro        0 Sep 11 15:31 fort.10.pe080
-rw-r--r-- 1 desmarais avogadro        0 Sep 11 15:31 fort.10.pe081
-rw-r--r-- 1 desmarais avogadro        0 Sep 11 15:31 fort.10.pe082
-rw-r--r-- 1 desmarais avogadro        0 Sep 11 15:31 fort.10.pe083
-rw-r--r-- 1 desmarais avogadro        0 Sep 11 15:31 fort.10.pe084
-rw-r--r-- 1 desmarais avogadro        0 Sep 11 15:31 fort.10.pe085
-rw-r--r-- 1 desmarais avogadro        0 Sep 11 15:31 fort.10.pe086
-rw-r--r-- 1 desmarais avogadro        0 Sep 11 15:31 fort.10.pe087
-rw-r--r-- 1 desmarais avogadro        0 Sep 11 15:31 fort.10.pe088
-rw-r--r-- 1 desmarais avogadro        0 Sep 11 15:31 fort.10.pe089
-rw-r--r-- 1 desmarais avogadro        0 Sep 11 15:31 fort.10.pe090
-rw-r--r-- 1 desmarais avogadro        0 Sep 11 15:31 fort.10.pe091
[...]
-rw-r--r-- 1 desmarais avogadro        0 Sep 11 15:31 fort.75.pe089
-rw-r--r-- 1 desmarais avogadro        0 Sep 11 15:31 fort.75.pe090
-rw-r--r-- 1 desmarais avogadro        0 Sep 11 15:31 fort.75.pe091
-rw-r--r-- 1 desmarais avogadro        0 Sep 11 15:31 fort.75.pe092
-rw-r--r-- 1 desmarais avogadro        0 Sep 11 15:31 fort.75.pe093
-rw-r--r-- 1 desmarais avogadro        0 Sep 11 15:31 fort.75.pe094
-rw-r--r-- 1 desmarais avogadro        0 Sep 11 15:31 fort.75.pe095
-rw-r--r-- 1 desmarais avogadro        0 Sep 11 15:31 fort.75.pe096
-rw-r--r-- 1 desmarais avogadro        0 Sep 11 15:31 fort.75.pe097
-rw-r--r-- 1 desmarais avogadro        0 Sep 11 15:31 fort.75.pe098
-rw-r--r-- 1 desmarais avogadro        0 Sep 11 15:31 fort.75.pe099
-rw-r--r-- 1 desmarais avogadro        0 Sep 11 15:31 fort.75.pe100
-rw-r--r-- 1 desmarais avogadro        0 Sep 11 15:31 fort.75.pe101
-rw-r--r-- 1 desmarais avogadro        0 Sep 11 15:31 fort.75.pe102
-rw-r--r-- 1 desmarais avogadro        0 Sep 11 15:31 fort.75.pe103
-rw-r--r-- 1 desmarais avogadro        0 Sep 11 15:31 fort.75.pe104
-rw-r--r-- 1 desmarais avogadro        0 Sep 11 15:31 fort.75.pe105
-rw-r--r-- 1 desmarais avogadro        0 Sep 11 15:31 fort.75.pe106
-rw-r--r-- 1 desmarais avogadro        0 Sep 11 15:31 fort.75.pe107
-rw-r--r-- 1 desmarais avogadro        0 Sep 11 15:31 fort.75.pe108
-rw-r--r-- 1 desmarais avogadro        0 Sep 11 15:31 fort.75.pe109
-rw-r--r-- 1 desmarais avogadro        0 Sep 11 15:31 fort.75.pe110
-rw-r--r-- 1 desmarais avogadro        0 Sep 11 15:31 fort.75.pe111
-rw-r--r-- 1 desmarais avogadro        0 Sep 11 15:31 fort.75.pe112
-rw-r--r-- 1 desmarais avogadro        0 Sep 11 15:31 fort.75.pe113
-rw-r--r-- 1 desmarais avogadro        0 Sep 11 15:31 fort.75.pe114
-rw-r--r-- 1 desmarais avogadro        0 Sep 11 15:31 fort.75.pe115
-rw-r--r-- 1 desmarais avogadro        0 Sep 11 15:31 fort.75.pe116
-rw-r--r-- 1 desmarais avogadro        0 Sep 11 15:31 fort.75.pe117
-rw-r--r-- 1 desmarais avogadro        0 Sep 11 15:31 fort.75.pe118
-rw-r--r-- 1 desmarais avogadro        0 Sep 11 15:31 fort.75.pe119
-rw-r--r-- 1 desmarais avogadro        0 Sep 11 15:31 fort.75.pe120
-rw-r--r-- 1 desmarais avogadro        0 Sep 11 15:31 fort.75.pe121
-rw-r--r-- 1 desmarais avogadro        0 Sep 11 15:31 fort.75.pe122
-rw-r--r-- 1 desmarais avogadro        0 Sep 11 15:31 fort.75.pe123
-rw-r--r-- 1 desmarais avogadro        0 Sep 11 15:31 fort.75.pe124
-rw-r--r-- 1 desmarais avogadro        0 Sep 11 15:31 fort.75.pe125
-rw-r--r-- 1 desmarais avogadro        0 Sep 11 15:31 fort.75.pe126
-rw-r--r-- 1 desmarais avogadro        0 Sep 11 15:31 fort.75.pe127
-rw-r--r-- 1 desmarais avogadro        0 Sep 11 15:31 fort.77.pe000
-rw-r--r-- 1 desmarais avogadro        0 Sep 11 15:31 fort.77.pe001
-rw-r--r-- 1 desmarais avogadro        0 Sep 11 15:31 fort.77.pe002
-rw-r--r-- 1 desmarais avogadro        0 Sep 11 15:31 fort.77.pe003
-rw-r--r-- 1 desmarais avogadro        0 Sep 11 15:31 fort.77.pe004
-rw-r--r-- 1 desmarais avogadro        0 Sep 11 15:31 fort.77.pe005
-rw-r--r-- 1 desmarais avogadro        0 Sep 11 15:31 fort.77.pe006
-rw-r--r-- 1 desmarais avogadro        0 Sep 11 15:31 fort.77.pe007
-rw-r--r-- 1 desmarais avogadro        0 Sep 11 15:31 fort.77.pe008
-rw-r--r-- 1 desmarais avogadro        0 Sep 11 15:31 fort.77.pe009
-rw-r--r-- 1 desmarais avogadro        0 Sep 11 15:31 fort.77.pe010
-rw-r--r-- 1 desmarais avogadro        0 Sep 11 15:31 fort.77.pe011
-rw-r--r-- 1 desmarais avogadro        0 Sep 11 15:31 fort.77.pe012
-rw-r--r-- 1 desmarais avogadro        0 Sep 11 15:31 fort.77.pe013
-rw-r--r-- 1 desmarais avogadro        0 Sep 11 15:31 fort.77.pe014
-rw-r--r-- 1 desmarais avogadro        0 Sep 11 15:31 fort.77.pe015
-rw-r--r-- 1 desmarais avogadro        0 Sep 11 15:31 fort.77.pe016
-rw-r--r-- 1 desmarais avogadro        0 Sep 11 15:31 fort.77.pe017
-rw-r--r-- 1 desmarais avogadro        0 Sep 11 15:31 fort.77.pe018
-rw-r--r-- 1 desmarais avogadro        0 Sep 11 15:31 fort.77.pe019
-rw-r--r-- 1 desmarais avogadro        0 Sep 11 15:31 fort.77.pe020
-rw-r--r-- 1 desmarais avogadro        0 Sep 11 15:31 fort.77.pe021
-rw-r--r-- 1 desmarais avogadro        0 Sep 11 15:31 fort.77.pe022
-rw-r--r-- 1 desmarais avogadro        0 Sep 11 15:31 fort.77.pe023
-rw-r--r-- 1 desmarais avogadro        0 Sep 11 15:31 fort.77.pe024
-rw-r--r-- 1 desmarais avogadro        0 Sep 11 15:31 fort.77.pe025
-rw-r--r-- 1 desmarais avogadro        0 Sep 11 15:31 fort.77.pe026
-rw-r--r-- 1 desmarais avogadro        0 Sep 11 15:31 fort.77.pe027
-rw-r--r-- 1 desmarais avogadro        0 Sep 11 15:31 fort.77.pe028
-rw-r--r-- 1 desmarais avogadro        0 Sep 11 15:31 fort.77.pe029
-rw-r--r-- 1 desmarais avogadro        0 Sep 11 15:31 fort.77.pe030
-rw-r--r-- 1 desmarais avogadro        0 Sep 11 15:31 fort.77.pe031
-rw-r--r-- 1 desmarais avogadro        0 Sep 11 15:31 fort.77.pe032
-rw-r--r-- 1 desmarais avogadro        0 Sep 11 15:31 fort.77.pe033
-rw-r--r-- 1 desmarais avogadro        0 Sep 11 15:31 fort.77.pe034
-rw-r--r-- 1 desmarais avogadro        0 Sep 11 15:31 fort.77.pe035
-rw-r--r-- 1 desmarais avogadro        0 Sep 11 15:31 fort.77.pe036
-rw-r--r-- 1 desmarais avogadro        0 Sep 11 15:31 fort.77.pe037
-rw-r--r-- 1 desmarais avogadro        0 Sep 11 15:31 fort.77.pe038
-rw-r--r-- 1 desmarais avogadro        0 Sep 11 15:31 fort.77.pe039
-rw-r--r-- 1 desmarais avogadro        0 Sep 11 15:31 fort.77.pe040
-rw-r--r-- 1 desmarais avogadro        0 Sep 11 15:31 fort.77.pe041
-rw-r--r-- 1 desmarais avogadro        0 Sep 11 15:31 fort.77.pe042
-rw-r--r-- 1 desmarais avogadro        0 Sep 11 15:31 fort.77.pe043
-rw-r--r-- 1 desmarais avogadro        0 Sep 11 15:31 fort.77.pe044
-rw-r--r-- 1 desmarais avogadro        0 Sep 11 15:31 fort.77.pe045
-rw-r--r-- 1 desmarais avogadro        0 Sep 11 15:31 fort.77.pe046
-rw-r--r-- 1 desmarais avogadro        0 Sep 11 15:31 fort.77.pe047
-rw-r--r-- 1 desmarais avogadro        0 Sep 11 15:31 fort.77.pe048
-rw-r--r-- 1 desmarais avogadro        0 Sep 11 15:31 fort.77.pe049
-rw-r--r-- 1 desmarais avogadro        0 Sep 11 15:31 fort.77.pe050
-rw-r--r-- 1 desmarais avogadro        0 Sep 11 15:31 fort.77.pe051
-rw-r--r-- 1 desmarais avogadro        0 Sep 11 15:31 fort.77.pe052
-rw-r--r-- 1 desmarais avogadro        0 Sep 11 15:31 fort.77.pe053
-rw-r--r-- 1 desmarais avogadro        0 Sep 11 15:31 fort.77.pe054
-rw-r--r-- 1 desmarais avogadro        0 Sep 11 15:31 fort.77.pe055
-rw-r--r-- 1 desmarais avogadro        0 Sep 11 15:31 fort.77.pe056
-rw-r--r-- 1 desmarais avogadro        0 Sep 11 15:31 fort.77.pe057
-rw-r--r-- 1 desmarais avogadro        0 Sep 11 15:31 fort.77.pe058
-rw-r--r-- 1 desmarais avogadro        0 Sep 11 15:31 fort.77.pe059
-rw-r--r-- 1 desmarais avogadro        0 Sep 11 15:31 fort.77.pe060
-rw-r--r-- 1 desmarais avogadro        0 Sep 11 15:31 fort.77.pe061
-rw-r--r-- 1 desmarais avogadro        0 Sep 11 15:31 fort.77.pe062
-rw-r--r-- 1 desmarais avogadro        0 Sep 11 15:31 fort.77.pe063
-rw-r--r-- 1 desmarais avogadro        0 Sep 11 15:31 fort.77.pe064
-rw-r--r-- 1 desmarais avogadro        0 Sep 11 15:31 fort.77.pe065
-rw-r--r-- 1 desmarais avogadro        0 Sep 11 15:31 fort.77.pe066
-rw-r--r-- 1 desmarais avogadro        0 Sep 11 15:31 fort.77.pe067
-rw-r--r-- 1 desmarais avogadro        0 Sep 11 15:31 fort.77.pe068
-rw-r--r-- 1 desmarais avogadro        0 Sep 11 15:31 fort.77.pe069
-rw-r--r-- 1 desmarais avogadro        0 Sep 11 15:31 fort.77.pe070
-rw-r--r-- 1 desmarais avogadro        0 Sep 11 15:31 fort.77.pe071
-rw-r--r-- 1 desmarais avogadro        0 Sep 11 15:31 fort.77.pe072
-rw-r--r-- 1 desmarais avogadro        0 Sep 11 15:31 fort.77.pe073
-rw-r--r-- 1 desmarais avogadro        0 Sep 11 15:31 fort.77.pe074
-rw-r--r-- 1 desmarais avogadro        0 Sep 11 15:31 fort.77.pe075
-rw-r--r-- 1 desmarais avogadro        0 Sep 11 15:31 fort.77.pe076
-rw-r--r-- 1 desmarais avogadro        0 Sep 11 15:31 fort.77.pe077
-rw-r--r-- 1 desmarais avogadro        0 Sep 11 15:31 fort.77.pe078
-rw-r--r-- 1 desmarais avogadro        0 Sep 11 15:31 fort.77.pe079
-rw-r--r-- 1 desmarais avogadro        0 Sep 11 15:31 fort.77.pe080
-rw-r--r-- 1 desmarais avogadro        0 Sep 11 15:31 fort.77.pe081
-rw-r--r-- 1 desmarais avogadro        0 Sep 11 15:31 fort.77.pe082
-rw-r--r-- 1 desmarais avogadro        0 Sep 11 15:31 fort.77.pe083
-rw-r--r-- 1 desmarais avogadro        0 Sep 11 15:31 fort.77.pe084
-rw-r--r-- 1 desmarais avogadro        0 Sep 11 15:31 fort.77.pe085
-rw-r--r-- 1 desmarais avogadro        0 Sep 11 15:31 fort.77.pe086
-rw-r--r-- 1 desmarais avogadro        0 Sep 11 15:31 fort.77.pe087
-rw-r--r-- 1 desmarais avogadro        0 Sep 11 15:31 fort.77.pe088
-rw-r--r-- 1 desmarais avogadro        0 Sep 11 15:31 fort.77.pe089
-rw-r--r-- 1 desmarais avogadro        0 Sep 11 15:31 fort.77.pe090
-rw-r--r-- 1 desmarais avogadro        0 Sep 11 15:31 fort.77.pe091
-rw-r--r-- 1 desmarais avogadro        0 Sep 11 15:31 fort.77.pe092
-rw-r--r-- 1 desmarais avogadro        0 Sep 11 15:31 fort.77.pe093
-rw-r--r-- 1 desmarais avogadro        0 Sep 11 15:31 fort.77.pe094
-rw-r--r-- 1 desmarais avogadro        0 Sep 11 15:31 fort.77.pe095
-rw-r--r-- 1 desmarais avogadro        0 Sep 11 15:31 fort.77.pe096
-rw-r--r-- 1 desmarais avogadro        0 Sep 11 15:31 fort.77.pe097
-rw-r--r-- 1 desmarais avogadro        0 Sep 11 15:31 fort.77.pe098
-rw-r--r-- 1 desmarais avogadro        0 Sep 11 15:31 fort.77.pe099
-rw-r--r-- 1 desmarais avogadro        0 Sep 11 15:31 fort.77.pe100
-rw-r--r-- 1 desmarais avogadro        0 Sep 11 15:31 fort.77.pe101
-rw-r--r-- 1 desmarais avogadro        0 Sep 11 15:31 fort.77.pe102
-rw-r--r-- 1 desmarais avogadro        0 Sep 11 15:31 fort.77.pe103
-rw-r--r-- 1 desmarais avogadro        0 Sep 11 15:31 fort.77.pe104
-rw-r--r-- 1 desmarais avogadro        0 Sep 11 15:31 fort.77.pe105
-rw-r--r-- 1 desmarais avogadro        0 Sep 11 15:31 fort.77.pe106
-rw-r--r-- 1 desmarais avogadro        0 Sep 11 15:31 fort.77.pe107
-rw-r--r-- 1 desmarais avogadro        0 Sep 11 15:31 fort.77.pe108
-rw-r--r-- 1 desmarais avogadro        0 Sep 11 15:31 fort.77.pe109
-rw-r--r-- 1 desmarais avogadro        0 Sep 11 15:31 fort.77.pe110
-rw-r--r-- 1 desmarais avogadro        0 Sep 11 15:31 fort.77.pe111
-rw-r--r-- 1 desmarais avogadro        0 Sep 11 15:31 fort.77.pe112
-rw-r--r-- 1 desmarais avogadro        0 Sep 11 15:31 fort.77.pe113
-rw-r--r-- 1 desmarais avogadro        0 Sep 11 15:31 fort.77.pe114
-rw-r--r-- 1 desmarais avogadro        0 Sep 11 15:31 fort.77.pe115
-rw-r--r-- 1 desmarais avogadro        0 Sep 11 15:31 fort.77.pe116
-rw-r--r-- 1 desmarais avogadro        0 Sep 11 15:31 fort.77.pe117
-rw-r--r-- 1 desmarais avogadro        0 Sep 11 15:31 fort.77.pe118
-rw-r--r-- 1 desmarais avogadro        0 Sep 11 15:31 fort.77.pe119
-rw-r--r-- 1 desmarais avogadro        0 Sep 11 15:31 fort.77.pe120
-rw-r--r-- 1 desmarais avogadro        0 Sep 11 15:31 fort.77.pe121
-rw-r--r-- 1 desmarais avogadro        0 Sep 11 15:31 fort.77.pe122
-rw-r--r-- 1 desmarais avogadro        0 Sep 11 15:31 fort.77.pe123
-rw-r--r-- 1 desmarais avogadro        0 Sep 11 15:31 fort.77.pe124
-rw-r--r-- 1 desmarais avogadro        0 Sep 11 15:31 fort.77.pe125
-rw-r--r-- 1 desmarais avogadro        0 Sep 11 15:31 fort.77.pe126
-rw-r--r-- 1 desmarais avogadro        0 Sep 11 15:31 fort.77.pe127
-rw-r--r-- 1 desmarais avogadro        0 Sep 11 15:31 fort.8.pe000
-rw-r--r-- 1 desmarais avogadro        0 Sep 11 15:31 fort.8.pe001
-rw-r--r-- 1 desmarais avogadro        0 Sep 11 15:31 fort.8.pe002
-rw-r--r-- 1 desmarais avogadro        0 Sep 11 15:31 fort.8.pe003
-rw-r--r-- 1 desmarais avogadro        0 Sep 11 15:31 fort.8.pe004
-rw-r--r-- 1 desmarais avogadro        0 Sep 11 15:31 fort.8.pe005
-rw-r--r-- 1 desmarais avogadro        0 Sep 11 15:31 fort.8.pe006
-rw-r--r-- 1 desmarais avogadro        0 Sep 11 15:31 fort.8.pe007
-rw-r--r-- 1 desmarais avogadro        0 Sep 11 15:31 fort.8.pe008
-rw-r--r-- 1 desmarais avogadro        0 Sep 11 15:31 fort.8.pe009
-rw-r--r-- 1 desmarais avogadro        0 Sep 11 15:31 fort.8.pe010
-rw-r--r-- 1 desmarais avogadro        0 Sep 11 15:31 fort.8.pe011
-rw-r--r-- 1 desmarais avogadro        0 Sep 11 15:31 fort.8.pe012
-rw-r--r-- 1 desmarais avogadro        0 Sep 11 15:31 fort.8.pe013
-rw-r--r-- 1 desmarais avogadro        0 Sep 11 15:31 fort.8.pe014
-rw-r--r-- 1 desmarais avogadro        0 Sep 11 15:31 fort.8.pe015
-rw-r--r-- 1 desmarais avogadro        0 Sep 11 15:31 fort.8.pe016
-rw-r--r-- 1 desmarais avogadro        0 Sep 11 15:31 fort.8.pe017
-rw-r--r-- 1 desmarais avogadro        0 Sep 11 15:31 fort.8.pe018
-rw-r--r-- 1 desmarais avogadro        0 Sep 11 15:31 fort.8.pe019
-rw-r--r-- 1 desmarais avogadro        0 Sep 11 15:31 fort.8.pe020
-rw-r--r-- 1 desmarais avogadro        0 Sep 11 15:31 fort.8.pe021
-rw-r--r-- 1 desmarais avogadro        0 Sep 11 15:31 fort.8.pe022
-rw-r--r-- 1 desmarais avogadro        0 Sep 11 15:31 fort.8.pe023
-rw-r--r-- 1 desmarais avogadro        0 Sep 11 15:31 fort.8.pe024
-rw-r--r-- 1 desmarais avogadro        0 Sep 11 15:31 fort.8.pe025
-rw-r--r-- 1 desmarais avogadro        0 Sep 11 15:31 fort.8.pe026
-rw-r--r-- 1 desmarais avogadro        0 Sep 11 15:31 fort.8.pe027
-rw-r--r-- 1 desmarais avogadro        0 Sep 11 15:31 fort.8.pe028
-rw-r--r-- 1 desmarais avogadro        0 Sep 11 15:31 fort.8.pe029
-rw-r--r-- 1 desmarais avogadro        0 Sep 11 15:31 fort.8.pe030
-rw-r--r-- 1 desmarais avogadro        0 Sep 11 15:31 fort.8.pe031
-rw-r--r-- 1 desmarais avogadro        0 Sep 11 15:31 fort.8.pe032
-rw-r--r-- 1 desmarais avogadro        0 Sep 11 15:31 fort.8.pe033
-rw-r--r-- 1 desmarais avogadro        0 Sep 11 15:31 fort.8.pe034
-rw-r--r-- 1 desmarais avogadro        0 Sep 11 15:31 fort.8.pe035
-rw-r--r-- 1 desmarais avogadro        0 Sep 11 15:31 fort.8.pe036
-rw-r--r-- 1 desmarais avogadro        0 Sep 11 15:31 fort.8.pe037
-rw-r--r-- 1 desmarais avogadro        0 Sep 11 15:31 fort.8.pe038
-rw-r--r-- 1 desmarais avogadro        0 Sep 11 15:31 fort.8.pe039
-rw-r--r-- 1 desmarais avogadro        0 Sep 11 15:31 fort.8.pe040
-rw-r--r-- 1 desmarais avogadro        0 Sep 11 15:31 fort.8.pe041
-rw-r--r-- 1 desmarais avogadro        0 Sep 11 15:31 fort.8.pe042
-rw-r--r-- 1 desmarais avogadro        0 Sep 11 15:31 fort.8.pe043
-rw-r--r-- 1 desmarais avogadro        0 Sep 11 15:31 fort.8.pe044
-rw-r--r-- 1 desmarais avogadro        0 Sep 11 15:31 fort.8.pe045
-rw-r--r-- 1 desmarais avogadro        0 Sep 11 15:31 fort.8.pe046
-rw-r--r-- 1 desmarais avogadro        0 Sep 11 15:31 fort.8.pe047
-rw-r--r-- 1 desmarais avogadro        0 Sep 11 15:31 fort.8.pe048
-rw-r--r-- 1 desmarais avogadro        0 Sep 11 15:31 fort.8.pe049
-rw-r--r-- 1 desmarais avogadro        0 Sep 11 15:31 fort.8.pe050
-rw-r--r-- 1 desmarais avogadro        0 Sep 11 15:31 fort.8.pe051
-rw-r--r-- 1 desmarais avogadro        0 Sep 11 15:31 fort.8.pe052
-rw-r--r-- 1 desmarais avogadro        0 Sep 11 15:31 fort.8.pe053
-rw-r--r-- 1 desmarais avogadro        0 Sep 11 15:31 fort.8.pe054
-rw-r--r-- 1 desmarais avogadro        0 Sep 11 15:31 fort.8.pe055
-rw-r--r-- 1 desmarais avogadro        0 Sep 11 15:31 fort.8.pe056
-rw-r--r-- 1 desmarais avogadro        0 Sep 11 15:31 fort.8.pe057
-rw-r--r-- 1 desmarais avogadro        0 Sep 11 15:31 fort.8.pe058
-rw-r--r-- 1 desmarais avogadro        0 Sep 11 15:31 fort.8.pe059
-rw-r--r-- 1 desmarais avogadro        0 Sep 11 15:31 fort.8.pe060
-rw-r--r-- 1 desmarais avogadro        0 Sep 11 15:31 fort.8.pe061
-rw-r--r-- 1 desmarais avogadro        0 Sep 11 15:31 fort.8.pe062
-rw-r--r-- 1 desmarais avogadro        0 Sep 11 15:31 fort.8.pe063
-rw-r--r-- 1 desmarais avogadro        0 Sep 11 15:31 fort.8.pe064
-rw-r--r-- 1 desmarais avogadro        0 Sep 11 15:31 fort.8.pe065
-rw-r--r-- 1 desmarais avogadro        0 Sep 11 15:31 fort.8.pe066
-rw-r--r-- 1 desmarais avogadro        0 Sep 11 15:31 fort.8.pe067
-rw-r--r-- 1 desmarais avogadro        0 Sep 11 15:31 fort.8.pe068
-rw-r--r-- 1 desmarais avogadro        0 Sep 11 15:31 fort.8.pe069
-rw-r--r-- 1 desmarais avogadro        0 Sep 11 15:31 fort.8.pe070
-rw-r--r-- 1 desmarais avogadro        0 Sep 11 15:31 fort.8.pe071
-rw-r--r-- 1 desmarais avogadro        0 Sep 11 15:31 fort.8.pe072
-rw-r--r-- 1 desmarais avogadro        0 Sep 11 15:31 fort.8.pe073
-rw-r--r-- 1 desmarais avogadro        0 Sep 11 15:31 fort.8.pe074
-rw-r--r-- 1 desmarais avogadro        0 Sep 11 15:31 fort.8.pe075
-rw-r--r-- 1 desmarais avogadro        0 Sep 11 15:31 fort.8.pe076
-rw-r--r-- 1 desmarais avogadro        0 Sep 11 15:31 fort.8.pe077
-rw-r--r-- 1 desmarais avogadro        0 Sep 11 15:31 fort.8.pe078
-rw-r--r-- 1 desmarais avogadro        0 Sep 11 15:31 fort.8.pe079
-rw-r--r-- 1 desmarais avogadro        0 Sep 11 15:31 fort.8.pe080
-rw-r--r-- 1 desmarais avogadro        0 Sep 11 15:31 fort.8.pe081
-rw-r--r-- 1 desmarais avogadro        0 Sep 11 15:31 fort.8.pe082
-rw-r--r-- 1 desmarais avogadro        0 Sep 11 15:31 fort.8.pe083
-rw-r--r-- 1 desmarais avogadro        0 Sep 11 15:31 fort.8.pe084
-rw-r--r-- 1 desmarais avogadro        0 Sep 11 15:31 fort.8.pe085
-rw-r--r-- 1 desmarais avogadro        0 Sep 11 15:31 fort.8.pe086
-rw-r--r-- 1 desmarais avogadro        0 Sep 11 15:31 fort.8.pe087
-rw-r--r-- 1 desmarais avogadro        0 Sep 11 15:31 fort.8.pe088
-rw-r--r-- 1 desmarais avogadro        0 Sep 11 15:31 fort.8.pe089
-rw-r--r-- 1 desmarais avogadro        0 Sep 11 15:31 fort.8.pe090
-rw-r--r-- 1 desmarais avogadro        0 Sep 11 15:31 fort.8.pe091
-rw-r--r-- 1 desmarais avogadro        0 Sep 11 15:31 fort.8.pe092
-rw-r--r-- 1 desmarais avogadro        0 Sep 11 15:31 fort.8.pe093
-rw-r--r-- 1 desmarais avogadro        0 Sep 11 15:31 fort.8.pe094
-rw-r--r-- 1 desmarais avogadro        0 Sep 11 15:31 fort.8.pe095
-rw-r--r-- 1 desmarais avogadro        0 Sep 11 15:31 fort.8.pe096
-rw-r--r-- 1 desmarais avogadro        0 Sep 11 15:31 fort.8.pe097
-rw-r--r-- 1 desmarais avogadro        0 Sep 11 15:31 fort.8.pe098
-rw-r--r-- 1 desmarais avogadro        0 Sep 11 15:31 fort.8.pe099
-rw-r--r-- 1 desmarais avogadro        0 Sep 11 15:31 fort.8.pe100
-rw-r--r-- 1 desmarais avogadro        0 Sep 11 15:31 fort.8.pe101
-rw-r--r-- 1 desmarais avogadro        0 Sep 11 15:31 fort.8.pe102
-rw-r--r-- 1 desmarais avogadro        0 Sep 11 15:31 fort.8.pe103
-rw-r--r-- 1 desmarais avogadro        0 Sep 11 15:31 fort.8.pe104
-rw-r--r-- 1 desmarais avogadro        0 Sep 11 15:31 fort.8.pe105
-rw-r--r-- 1 desmarais avogadro        0 Sep 11 15:31 fort.8.pe106
-rw-r--r-- 1 desmarais avogadro        0 Sep 11 15:31 fort.8.pe107
-rw-r--r-- 1 desmarais avogadro        0 Sep 11 15:31 fort.8.pe108
-rw-r--r-- 1 desmarais avogadro        0 Sep 11 15:31 fort.8.pe109
-rw-r--r-- 1 desmarais avogadro        0 Sep 11 15:31 fort.8.pe110
-rw-r--r-- 1 desmarais avogadro        0 Sep 11 15:31 fort.8.pe111
-rw-r--r-- 1 desmarais avogadro        0 Sep 11 15:31 fort.8.pe112
-rw-r--r-- 1 desmarais avogadro        0 Sep 11 15:31 fort.8.pe113
-rw-r--r-- 1 desmarais avogadro        0 Sep 11 15:31 fort.8.pe114
-rw-r--r-- 1 desmarais avogadro        0 Sep 11 15:31 fort.8.pe115
-rw-r--r-- 1 desmarais avogadro        0 Sep 11 15:31 fort.8.pe116
-rw-r--r-- 1 desmarais avogadro        0 Sep 11 15:31 fort.8.pe117
-rw-r--r-- 1 desmarais avogadro        0 Sep 11 15:31 fort.8.pe118
-rw-r--r-- 1 desmarais avogadro        0 Sep 11 15:31 fort.8.pe119
-rw-r--r-- 1 desmarais avogadro        0 Sep 11 15:31 fort.8.pe120
-rw-r--r-- 1 desmarais avogadro        0 Sep 11 15:31 fort.8.pe121
-rw-r--r-- 1 desmarais avogadro        0 Sep 11 15:31 fort.8.pe122
-rw-r--r-- 1 desmarais avogadro        0 Sep 11 15:31 fort.8.pe123
-rw-r--r-- 1 desmarais avogadro        0 Sep 11 15:31 fort.8.pe124
-rw-r--r-- 1 desmarais avogadro        0 Sep 11 15:31 fort.8.pe125
-rw-r--r-- 1 desmarais avogadro        0 Sep 11 15:31 fort.8.pe126
-rw-r--r-- 1 desmarais avogadro        0 Sep 11 15:31 fort.8.pe127
-rw-r--r-- 1 desmarais avogadro  8043904 Sep 11 15:31 fort.9
